10
i =        0, time =        0.000, E =       -31.2106218402
C         -0.89503        0.00154       -0.58922
C         -0.89503        0.00154        0.71178
C          0.37748        0.00154        1.11545
C          1.17970        0.00154       -0.11516
C          0.29441        0.00154       -1.11631
H          0.53404        0.00154       -2.17964
H          2.26677        0.00154       -0.19499
H          0.74491        0.00154        2.14165
H         -1.77011        0.00154        1.36167
H         -1.83713       -0.01384       -1.13524
10
i =        0, time =        0.000, E =       -31.2106218402
C         -0.89503        0.00154       -0.58922
C         -0.89503        0.00154        0.71178
C          0.37748        0.00154        1.11545
C          1.17970        0.00154       -0.11516
C          0.29441        0.00154       -1.11631
H          0.53404        0.00154       -2.17964
H          2.26677        0.00154       -0.19499
H          0.74491        0.00154        2.14165
H         -1.77011        0.00154        1.36167
H         -1.83713       -0.01384       -1.13524
10
i =        2, time =        0.800, E =       -31.2145773817
C         -0.89404        0.00418       -0.58789
C         -0.89514        0.00162        0.71589
C          0.38961        0.00372        1.11928
C          1.18480       -0.00430       -0.11798
C          0.30555        0.00205       -1.12116
H          0.52596       -0.01082       -2.17924
H          2.25429        0.00732       -0.19993
H          0.74392        0.01594        2.14602
H         -1.76693       -0.00327        1.36051
H         -1.84801       -0.01644       -1.13549
10
i =        2, time =        0.800, E =       -31.2145773817
C         -0.89404        0.00418       -0.58789
C         -0.89514        0.00162        0.71589
C          0.38961        0.00372        1.11928
C          1.18480       -0.00430       -0.11798
C          0.30555        0.00205       -1.12116
H          0.52596       -0.01082       -2.17924
H          2.25429        0.00732       -0.19993
H          0.74392        0.01594        2.14602
H         -1.76693       -0.00327        1.36051
H         -1.84801       -0.01644       -1.13549
10
i =        4, time =        1.600, E =       -31.2196908288
C         -0.89650        0.00659       -0.58901
C         -0.89654        0.00176        0.72244
C          0.40327        0.00604        1.12353
C          1.19060       -0.01010       -0.11865
C          0.31738        0.00262       -1.12816
H          0.51857       -0.02307       -2.18002
H          2.24384        0.01325       -0.20446
H          0.74319        0.02973        2.15117
H         -1.76502       -0.00780        1.35993
H         -1.85880       -0.01901       -1.13677
10
i =        4, time =        1.600, E =       -31.2196908288
C         -0.89650        0.00659       -0.58901
C         -0.89654        0.00176        0.72244
C          0.40327        0.00604        1.12353
C          1.19060       -0.01010       -0.11865
C          0.31738        0.00262       -1.12816
H          0.51857       -0.02307       -2.18002
H          2.24384        0.01325       -0.20446
H          0.74319        0.02973        2.15117
H         -1.76502       -0.00780        1.35993
H         -1.85880       -0.01901       -1.13677
10
i =        6, time =        2.400, E =       -31.2253817290
C         -0.90226        0.00890       -0.59240
C         -0.89896        0.00196        0.73102
C          0.41767        0.00849        1.12801
C          1.19663       -0.01584       -0.11723
C          0.32910        0.00319       -1.13686
H          0.51203       -0.03520       -2.18288
H          2.23703        0.01932       -0.20865
H          0.74288        0.04281        2.15740
H         -1.76507       -0.01208        1.36041
H         -1.86904       -0.02155       -1.13882
10
i =        6, time =        2.400, E =       -31.2253817290
C         -0.90226        0.00890       -0.59240
C         -0.89896        0.00196        0.73102
C          0.41767        0.00849        1.12801
C          1.19663       -0.01584       -0.11723
C          0.32910        0.00319       -1.13686
H          0.51203       -0.03520       -2.18288
H          2.23703        0.01932       -0.20865
H          0.74288        0.04281        2.15740
H         -1.76507       -0.01208        1.36041
H         -1.86904       -0.02155       -1.13882
10
i =        8, time =        3.200, E =       -31.2309219917
C         -0.91094        0.01118       -0.59783
C         -0.90209        0.00221        0.74106
C          0.43197        0.01103        1.13255
C          1.20244       -0.02150       -0.11384
C          0.33999        0.00376       -1.14664
H          0.50652       -0.04718       -2.18871
H          2.23514        0.02552       -0.21251
H          0.74322        0.05515        2.16499
H         -1.76774       -0.01610        1.36244
H         -1.87852       -0.02408       -1.14151
10
i =        8, time =        3.200, E =       -31.2309219917
C         -0.91094        0.01118       -0.59783
C         -0.90209        0.00221        0.74106
C          0.43197        0.01103        1.13255
C          1.20244       -0.02150       -0.11384
C          0.33999        0.00376       -1.14664
H          0.50652       -0.04718       -2.18871
H          2.23514        0.02552       -0.21251
H          0.74322        0.05515        2.16499
H         -1.76774       -0.01610        1.36244
H         -1.87852       -0.02408       -1.14151
10
i =       10, time =        4.000, E =       -31.2358277584
C         -0.92175        0.01341       -0.60493
C         -0.90562        0.00253        0.75188
C          0.44541        0.01366        1.13705
C          1.20774       -0.02704       -0.10868
C          0.34946        0.00431       -1.15687
H          0.50223       -0.05902       -2.19813
H          2.23886        0.03190       -0.21602
H          0.74442        0.06674        2.17406
H         -1.77348       -0.01988        1.36649
H         -1.88726       -0.02660       -1.14484
10
i =       10, time =        4.000, E =       -31.2358277584
C         -0.92175        0.01341       -0.60493
C         -0.90562        0.00253        0.75188
C          0.44541        0.01366        1.13705
C          1.20774       -0.02704       -0.10868
C          0.34946        0.00431       -1.15687
H          0.50223       -0.05902       -2.19813
H          2.23886        0.03190       -0.21602
H          0.74442        0.06674        2.17406
H         -1.77348       -0.01988        1.36649
H         -1.88726       -0.02660       -1.14484
10
i =       12, time =        4.800, E =       -31.2397997073
C         -0.93376        0.01557       -0.61324
C         -0.90929        0.00293        0.76277
C          0.45736        0.01636        1.14144
C          1.21239       -0.03242       -0.10201
C          0.35709        0.00481       -1.16691
H          0.49928       -0.07072       -2.21136
H          2.24809        0.03845       -0.21907
H          0.74674        0.07755        2.18453
H         -1.78243       -0.02340        1.37279
H         -1.89545       -0.02912       -1.14893
10
i =       12, time =        4.800, E =       -31.2397997073
C         -0.93376        0.01557       -0.61324
C         -0.90929        0.00293        0.76277
C          0.45736        0.01636        1.14144
C          1.21239       -0.03242       -0.10201
C          0.35709        0.00481       -1.16691
H          0.49928       -0.07072       -2.21136
H          2.24809        0.03845       -0.21907
H          0.74674        0.07755        2.18453
H         -1.78243       -0.02340        1.37279
H         -1.89545       -0.02912       -1.14893
10
i =       14, time =        5.600, E =       -31.2425582040
C         -0.94606        0.01764       -0.62225
C         -0.91293        0.00341        0.77315
C          0.46738        0.01913        1.14572
C          1.21643       -0.03758       -0.09420
C          0.36269        0.00526       -1.17629
H          0.49776       -0.08226       -2.22803
H          2.26199        0.04513       -0.22149
H          0.75039        0.08759        2.19604
H         -1.79430       -0.02667        1.38135
H         -1.90335       -0.03165       -1.15398
10
i =       14, time =        5.600, E =       -31.2425582040
C         -0.94606        0.01764       -0.62225
C         -0.91293        0.00341        0.77315
C          0.46738        0.01913        1.14572
C          1.21643       -0.03758       -0.09420
C          0.36269        0.00526       -1.17629
H          0.49776       -0.08226       -2.22803
H          2.26199        0.04513       -0.22149
H          0.75039        0.08759        2.19604
H         -1.79430       -0.02667        1.38135
H         -1.90335       -0.03165       -1.15398
10
i =       16, time =        6.400, E =       -31.2438496268
C         -0.95792        0.01962       -0.63144
C         -0.91642        0.00399        0.78255
C          0.47533        0.02198        1.14992
C          1.22007       -0.04247       -0.08567
C          0.36624        0.00562       -1.18472
H          0.49773       -0.09354       -2.24718
H          2.27908        0.05185       -0.22305
H          0.75552        0.09681        2.20797
H         -1.80837       -0.02966        1.39186
H         -1.91125       -0.03421       -1.16024
10
i =       16, time =        6.400, E =       -31.2438496268
C         -0.95792        0.01962       -0.63144
C         -0.91642        0.00399        0.78255
C          0.47533        0.02198        1.14992
C          1.22007       -0.04247       -0.08567
C          0.36624        0.00562       -1.18472
H          0.49773       -0.09354       -2.24718
H          2.27908        0.05185       -0.22305
H          0.75552        0.09681        2.20797
H         -1.80837       -0.02966        1.39186
H         -1.91125       -0.03421       -1.16024
10
i =       18, time =        7.200, E =       -31.2436066380
C         -0.96890        0.02151       -0.64032
C         -0.91973        0.00467        0.79073
C          0.48121        0.02493        1.15407
C          1.22353       -0.04702       -0.07687
C          0.36786        0.00588       -1.19208
H          0.49915       -0.10447       -2.26739
H          2.29756        0.05845       -0.22351
H          0.76225        0.10521        2.21955
H         -1.82359       -0.03233        1.40376
H         -1.91934       -0.03682       -1.16794
10
i =       18, time =        7.200, E =       -31.2436066380
C         -0.96890        0.02151       -0.64032
C         -0.91973        0.00467        0.79073
C          0.48121        0.02493        1.15407
C          1.22353       -0.04702       -0.07687
C          0.36786        0.00588       -1.19208
H          0.49915       -0.10447       -2.26739
H          2.29756        0.05845       -0.22351
H          0.76225        0.10521        2.21955
H         -1.82359       -0.03233        1.40376
H         -1.91934       -0.03682       -1.16794
10
i =       20, time =        8.000, E =       -31.2420775731
C         -0.97877        0.02330       -0.64852
C         -0.92287        0.00545        0.79755
C          0.48518        0.02798        1.15822
C          1.22706       -0.05118       -0.06825
C          0.36770        0.00598       -1.19840
H          0.50196       -0.11488       -2.28704
H          2.31556        0.06477       -0.22261
H          0.77060        0.11274        2.22993
H         -1.83871       -0.03466        1.41637
H         -1.92771       -0.03950       -1.17725
10
i =       20, time =        8.000, E =       -31.2420775731
C         -0.97877        0.02330       -0.64852
C         -0.92287        0.00545        0.79755
C          0.48518        0.02798        1.15822
C          1.22706       -0.05118       -0.06825
C          0.36770        0.00598       -1.19840
H          0.50196       -0.11488       -2.28704
H          2.31556        0.06477       -0.22261
H          0.77060        0.11274        2.22993
H         -1.83871       -0.03466        1.41637
H         -1.92771       -0.03950       -1.17725
10
i =       22, time =        8.800, E =       -31.2397885571
C         -0.98753        0.02498       -0.65577
C         -0.92591        0.00634        0.80301
C          0.48744        0.03115        1.16242
C          1.23082       -0.05491       -0.06018
C          0.36597        0.00588       -1.20376
H          0.50601       -0.12463       -2.30460
H          2.33151        0.07063       -0.22014
H          0.78048        0.11939        2.23827
H         -1.85250       -0.03658        1.42893
H         -1.93629       -0.04227       -1.18819
10
i =       22, time =        8.800, E =       -31.2397885571
C         -0.98753        0.02498       -0.65577
C         -0.92591        0.00634        0.80301
C          0.48744        0.03115        1.16242
C          1.23082       -0.05491       -0.06018
C          0.36597        0.00588       -1.20376
H          0.50601       -0.12463       -2.30460
H          2.33151        0.07063       -0.22014
H          0.78048        0.11939        2.23827
H         -1.85250       -0.03658        1.42893
H         -1.93629       -0.04227       -1.18819
10
i =       24, time =        9.600, E =       -31.2373626892
C         -0.99528        0.02655       -0.66193
C         -0.92894        0.00733        0.80720
C          0.48819        0.03445        1.16670
C          1.23487       -0.05817       -0.05296
C          0.36283        0.00554       -1.20824
H          0.51111       -0.13356       -2.31880
H          2.34422        0.07587       -0.21594
H          0.79173        0.12515        2.24388
H         -1.86389       -0.03805        1.44075
H         -1.94483       -0.04511       -1.20065
10
i =       24, time =        9.600, E =       -31.2373626892
C         -0.99528        0.02655       -0.66193
C         -0.92894        0.00733        0.80720
C          0.48819        0.03445        1.16670
C          1.23487       -0.05817       -0.05296
C          0.36283        0.00554       -1.20824
H          0.51111       -0.13356       -2.31880
H          2.34422        0.07587       -0.21594
H          0.79173        0.12515        2.24388
H         -1.86389       -0.03805        1.44075
H         -1.94483       -0.04511       -1.20065
10
i =       26, time =       10.400, E =       -31.2353380417
C         -1.00220        0.02797       -0.66697
C         -0.93206        0.00841        0.81020
C          0.48759        0.03786        1.17103
C          1.23916       -0.06092       -0.04677
C          0.35844        0.00491       -1.21193
H          0.51701       -0.14157       -2.32878
H          2.35301        0.08035       -0.20989
H          0.80410        0.13003        2.24620
H         -1.87205       -0.03905        1.45126
H         -1.95301       -0.04801       -1.21435
10
i =       26, time =       10.400, E =       -31.2353380417
C         -1.00220        0.02797       -0.66697
C         -0.93206        0.00841        0.81020
C          0.48759        0.03786        1.17103
C          1.23916       -0.06092       -0.04677
C          0.35844        0.00491       -1.21193
H          0.51701       -0.14157       -2.32878
H          2.35301        0.08035       -0.20989
H          0.80410        0.13003        2.24620
H         -1.87205       -0.03905        1.45126
H         -1.95301       -0.04801       -1.21435
10
i =       28, time =       11.200, E =       -31.2340539368
C         -1.00847        0.02923       -0.67093
C         -0.93534        0.00959        0.81213
C          0.48580        0.04139        1.17535
C          1.24352       -0.06317       -0.04169
C          0.35296        0.00394       -1.21489
H          0.52343       -0.14856       -2.33405
H          2.35762        0.08399       -0.20198
H          0.81729        0.13406        2.24492
H         -1.87640       -0.03953        1.46002
H         -1.96040       -0.05093       -1.22888
10
i =       28, time =       11.200, E =       -31.2340539368
C         -1.00847        0.02923       -0.67093
C         -0.93534        0.00959        0.81213
C          0.48580        0.04139        1.17535
C          1.24352       -0.06317       -0.04169
C          0.35296        0.00394       -1.21489
H          0.52343       -0.14856       -2.33405
H          2.35762        0.08399       -0.20198
H          0.81729        0.13406        2.24492
H         -1.87640       -0.03953        1.46002
H         -1.96040       -0.05093       -1.22888
10
i =       30, time =       12.000, E =       -31.2336120414
C         -1.01428        0.03029       -0.67393
C         -0.93886        0.01084        0.81310
C          0.48291        0.04500        1.17954
C          1.24772       -0.06491       -0.03774
C          0.34652        0.00258       -1.21714
H          0.53009       -0.15450       -2.33447
H          2.35816        0.08673       -0.19228
H          0.83097        0.13728        2.23992
H         -1.87663       -0.03948        1.46677
H         -1.96658       -0.05385       -1.24377
10
i =       30, time =       12.000, E =       -31.2336120414
C         -1.01428        0.03029       -0.67393
C         -0.93886        0.01084        0.81310
C          0.48291        0.04500        1.17954
C          1.24772       -0.06491       -0.03774
C          0.34652        0.00258       -1.21714
H          0.53009       -0.15450       -2.33447
H          2.35816        0.08673       -0.19228
H          0.83097        0.13728        2.23992
H         -1.87663       -0.03948        1.46677
H         -1.96658       -0.05385       -1.24377
10
i =       32, time =       12.800, E =       -31.2339027857
C         -1.01978        0.03112       -0.67609
C         -0.94264        0.01217        0.81319
C          0.47902        0.04870        1.18342
C          1.25144       -0.06614       -0.03490
C          0.33926        0.00079       -1.21871
H          0.53673       -0.15937       -2.33020
H          2.35506        0.08856       -0.18093
H          0.84479        0.13976        2.23134
H         -1.87269       -0.03888        1.47139
H         -1.97118       -0.05670       -1.25850
10
i =       32, time =       12.800, E =       -31.2339027857
C         -1.01978        0.03112       -0.67609
C         -0.94264        0.01217        0.81319
C          0.47902        0.04870        1.18342
C          1.25144       -0.06614       -0.03490
C          0.33926        0.00079       -1.21871
H          0.53673       -0.15937       -2.33020
H          2.35506        0.08856       -0.18093
H          0.84479        0.13976        2.23134
H         -1.87269       -0.03888        1.47139
H         -1.97118       -0.05670       -1.25850
10
i =       34, time =       13.600, E =       -31.2346666429
C         -1.02508        0.03171       -0.67758
C         -0.94667        0.01358        0.81243
C          0.47422        0.05243        1.18674
C          1.25435       -0.06689       -0.03309
C          0.33134       -0.00147       -1.21958
H          0.54309       -0.16320       -2.32168
H          2.34898        0.08950       -0.16817
H          0.85847        0.14157        2.21959
H         -1.86480       -0.03776        1.47394
H         -1.97389       -0.05946       -1.27261
10
i =       34, time =       13.600, E =       -31.2346666429
C         -1.02508        0.03171       -0.67758
C         -0.94667        0.01358        0.81243
C          0.47422        0.05243        1.18674
C          1.25435       -0.06689       -0.03309
C          0.33134       -0.00147       -1.21958
H          0.54309       -0.16320       -2.32168
H          2.34898        0.08950       -0.16817
H          0.85847        0.14157        2.21959
H         -1.86480       -0.03776        1.47394
H         -1.97389       -0.05946       -1.27261
10
i =       36, time =       14.400, E =       -31.2355804460
C         -1.03028        0.03200       -0.67854
C         -0.95088        0.01506        0.81087
C          0.46857        0.05617        1.18926
C          1.25611       -0.06717       -0.03224
C          0.32292       -0.00423       -1.21972
H          0.54900       -0.16607       -2.30959
H          2.34080        0.08962       -0.15434
H          0.87176        0.14282        2.20533
H         -1.85347       -0.03611        1.47463
H         -1.97453       -0.06208       -1.28566
10
i =       36, time =       14.400, E =       -31.2355804460
C         -1.03028        0.03200       -0.67854
C         -0.95088        0.01506        0.81087
C          0.46857        0.05617        1.18926
C          1.25611       -0.06717       -0.03224
C          0.32292       -0.00423       -1.21972
H          0.54900       -0.16607       -2.30959
H          2.34080        0.08962       -0.15434
H          0.87176        0.14282        2.20533
H         -1.85347       -0.03611        1.47463
H         -1.97453       -0.06208       -1.28566
10
i =       38, time =       15.200, E =       -31.2363587727
C         -1.03541        0.03199       -0.67911
C         -0.95516        0.01661        0.80850
C          0.46218        0.05988        1.19067
C          1.25644       -0.06699       -0.03227
C          0.31415       -0.00753       -1.21907
H          0.55433       -0.16808       -2.29488
H          2.33152        0.08902       -0.13979
H          0.88450        0.14359        2.18944
H         -1.83954       -0.03398        1.47384
H         -1.97301       -0.06451       -1.29733
10
i =       38, time =       15.200, E =       -31.2363587727
C         -1.03541        0.03199       -0.67911
C         -0.95516        0.01661        0.80850
C          0.46218        0.05988        1.19067
C          1.25644       -0.06699       -0.03227
C          0.31415       -0.00753       -1.21907
H          0.55433       -0.16808       -2.29488
H          2.33152        0.08902       -0.13979
H          0.88450        0.14359        2.18944
H         -1.83954       -0.03398        1.47384
H         -1.97301       -0.06451       -1.29733
10
i =       40, time =       16.000, E =       -31.2368630257
C         -1.04044        0.03166       -0.67943
C         -0.95935        0.01825        0.80531
C          0.45514        0.06352        1.19070
C          1.25509       -0.06638       -0.03310
C          0.30523       -0.01136       -1.21756
H          0.55908       -0.16936       -2.27868
H          2.32218        0.08781       -0.12492
H          0.89663        0.14400        2.17294
H         -1.82415       -0.03139        1.47214
H         -1.96940       -0.06674       -1.30740
10
i =       40, time =       16.000, E =       -31.2368630257
C         -1.04044        0.03166       -0.67943
C         -0.95935        0.01825        0.80531
C          0.45514        0.06352        1.19070
C          1.25509       -0.06638       -0.03310
C          0.30523       -0.01136       -1.21756
H          0.55908       -0.16936       -2.27868
H          2.32218        0.08781       -0.12492
H          0.89663        0.14400        2.17294
H         -1.82415       -0.03139        1.47214
H         -1.96940       -0.06674       -1.30740
10
i =       42, time =       16.800, E =       -31.2371684856
C         -1.04533        0.03098       -0.67958
C         -0.96324        0.01998        0.80128
C          0.44761        0.06706        1.18911
C          1.25196       -0.06534       -0.03462
C          0.29635       -0.01575       -1.21511
H          0.56330       -0.17006       -2.26223
H          2.31372        0.08612       -0.11013
H          0.90811        0.14415        2.15682
H         -1.80862       -0.02838        1.47019
H         -1.96386       -0.06875       -1.31573
10
i =       42, time =       16.800, E =       -31.2371684856
C         -1.04533        0.03098       -0.67958
C         -0.96324        0.01998        0.80128
C          0.44761        0.06706        1.18911
C          1.25196       -0.06534       -0.03462
C          0.29635       -0.01575       -1.21511
H          0.56330       -0.17006       -2.26223
H          2.31372        0.08612       -0.11013
H          0.90811        0.14415        2.15682
H         -1.80862       -0.02838        1.47019
H         -1.96386       -0.06875       -1.31573
10
i =       44, time =       17.600, E =       -31.2375235046
C         -1.04993        0.02997       -0.67961
C         -0.96659        0.02183        0.79639
C          0.43977        0.07047        1.18574
C          1.24703       -0.06389       -0.03676
C          0.28775       -0.02067       -1.21164
H          0.56715       -0.17031       -2.24673
H          2.30687        0.08401       -0.09575
H          0.91893        0.14411        2.14191
H         -1.79429       -0.02500        1.46875
H         -1.95668       -0.07052       -1.32231
10
i =       44, time =       17.600, E =       -31.2375235046
C         -1.04993        0.02997       -0.67961
C         -0.96659        0.02183        0.79639
C          0.43977        0.07047        1.18574
C          1.24703       -0.06389       -0.03676
C          0.28775       -0.02067       -1.21164
H          0.56715       -0.17031       -2.24673
H          2.30687        0.08401       -0.09575
H          0.91893        0.14411        2.14191
H         -1.79429       -0.02500        1.46875
H         -1.95668       -0.07052       -1.32231
10
i =       46, time =       18.400, E =       -31.2382141011
C         -1.05408        0.02862       -0.67956
C         -0.96916        0.02381        0.79070
C          0.43186        0.07374        1.18050
C          1.24041       -0.06202       -0.03941
C          0.27965       -0.02610       -1.20710
H          0.57082       -0.17023       -2.23316
H          2.30204        0.08155       -0.08206
H          0.92903        0.14397        2.12878
H         -1.78228       -0.02126        1.46851
H         -1.94829       -0.07207       -1.32720
10
i =       46, time =       18.400, E =       -31.2382141011
C         -1.05408        0.02862       -0.67956
C         -0.96916        0.02381        0.79070
C          0.43186        0.07374        1.18050
C          1.24041       -0.06202       -0.03941
C          0.27965       -0.02610       -1.20710
H          0.57082       -0.17023       -2.23316
H          2.30204        0.08155       -0.08206
H          0.92903        0.14397        2.12878
H         -1.78228       -0.02126        1.46851
H         -1.94829       -0.07207       -1.32720
10
i =       48, time =       19.200, E =       -31.2393796037
C         -1.05758        0.02695       -0.67939
C         -0.97078        0.02595        0.78428
C          0.42417        0.07687        1.17344
C          1.23235       -0.05972       -0.04246
C          0.27233       -0.03201       -1.20152
H          0.57449       -0.16991       -2.22214
H          2.29926        0.07870       -0.06927
H          0.93825        0.14375        2.11762
H         -1.77330       -0.01717        1.46999
H         -1.93919       -0.07340       -1.33055
10
i =       48, time =       19.200, E =       -31.2393796037
C         -1.05758        0.02695       -0.67939
C         -0.97078        0.02595        0.78428
C          0.42417        0.07687        1.17344
C          1.23235       -0.05972       -0.04246
C          0.27233       -0.03201       -1.20152
H          0.57449       -0.16991       -2.22214
H          2.29926        0.07870       -0.06927
H          0.93825        0.14375        2.11762
H         -1.77330       -0.01717        1.46999
H         -1.93919       -0.07340       -1.33055
10
i =       50, time =       20.000, E =       -31.2409092552
C         -1.06023        0.02495       -0.67906
C         -0.97133        0.02826        0.77732
C          0.41700        0.07985        1.16474
C          1.22317       -0.05698       -0.04579
C          0.26604       -0.03834       -1.19497
H          0.57830       -0.16938       -2.21388
H          2.29818        0.07541       -0.05755
H          0.94635        0.14349        2.10833
H         -1.76753       -0.01271        1.47343
H         -1.92995       -0.07454       -1.33256
10
i =       50, time =       20.000, E =       -31.2409092552
C         -1.06023        0.02495       -0.67906
C         -0.97133        0.02826        0.77732
C          0.41700        0.07985        1.16474
C          1.22317       -0.05698       -0.04579
C          0.26604       -0.03834       -1.19497
H          0.57830       -0.16938       -2.21388
H          2.29818        0.07541       -0.05755
H          0.94635        0.14349        2.10833
H         -1.76753       -0.01271        1.47343
H         -1.92995       -0.07454       -1.33256
10
i =       52, time =       20.800, E =       -31.2424813031
C         -1.06187        0.02264       -0.67849
C         -0.97083        0.03075        0.77008
C          0.41065        0.08270        1.15469
C          1.21329       -0.05380       -0.04927
C          0.26102       -0.04507       -1.18765
H          0.58230       -0.16864       -2.20816
H          2.29821        0.07156       -0.04698
H          0.95303        0.14319        2.10056
H         -1.76465       -0.00782        1.47868
H         -1.92116       -0.07553       -1.33348
10
i =       52, time =       20.800, E =       -31.2424813031
C         -1.06187        0.02264       -0.67849
C         -0.97083        0.03075        0.77008
C          0.41065        0.08270        1.15469
C          1.21329       -0.05380       -0.04927
C          0.26102       -0.04507       -1.18765
H          0.58230       -0.16864       -2.20816
H          2.29821        0.07156       -0.04698
H          0.95303        0.14319        2.10056
H         -1.76465       -0.00782        1.47868
H         -1.92116       -0.07553       -1.33348
10
i =       54, time =       21.600, E =       -31.2437325869
C         -1.06235        0.02003       -0.67759