10
i =        0, time =        0.000, E =       -31.2106218402
C         -0.96108       -0.00101       -0.62564
C         -0.89201        0.00074        0.72071
C          0.40978        0.00356        1.07106
C          1.14527        0.00355       -0.05876
C          0.29803        0.00073       -1.10738
H          0.57015       -0.00307       -2.16263
H          2.23297        0.00245       -0.12605
H          0.80991        0.00249        2.08473
H         -1.73241       -0.00301        1.41449
H         -1.88059       -0.00644       -1.21052
10
i =        0, time =        0.000, E =       -31.2106218402
C         -0.89503       -0.00232       -0.58921
C         -0.89503       -0.00082        0.71179
C          0.37748        0.00198        1.11545
C          1.17970        0.00203       -0.11516
C          0.29441       -0.00075       -1.11631
H          0.53405       -0.00154       -2.17964
H          2.26677        0.00393       -0.19499
H          0.74491        0.00384        2.14165
H         -1.77010       -0.00167        1.36168
H         -1.83715       -0.00468       -1.13525
10
i =        2, time =        0.800, E =       -31.2145773817
C         -0.96548       -0.00467       -0.62689
C         -0.89457        0.00171        0.72450
C          0.41260        0.00765        1.07465
C          1.14957        0.00493       -0.06034
C          0.29787       -0.00269       -1.11195
H          0.56652       -0.00935       -2.16263
H          2.23186        0.00544       -0.12953
H          0.81285        0.01079        2.08259
H         -1.72949       -0.00068        1.41665
H         -1.88173       -0.01313       -1.20704
10
i =        2, time =        0.800, E =       -31.2145773817
C         -0.89401       -0.00571       -0.58785
C         -0.89514        0.00028        0.71590
C          0.38960        0.00646        1.11927
C          1.18477        0.00344       -0.11802
C          0.30557       -0.00413       -1.12114
H          0.52596       -0.00825       -2.17926
H          2.25430        0.00666       -0.19993
H          0.74393        0.01237        2.14605
H         -1.76695        0.00032        1.36050
H         -1.84803       -0.01143       -1.13552
10
i =        4, time =        1.600, E =       -31.2196908288
C         -0.97165       -0.00830       -0.62929
C         -0.89878        0.00267        0.72962
C          0.41616        0.01168        1.08021
C          1.15598        0.00628       -0.06203
C          0.29827       -0.00607       -1.11856
H          0.56365       -0.01548       -2.16370
H          2.23201        0.00835       -0.13264
H          0.81582        0.01890        2.08174
H         -1.72780        0.00160        1.41924
H         -1.88365       -0.01965       -1.20458
10
i =        4, time =        1.600, E =       -31.2196908288
C         -0.89644       -0.00903       -0.58889
C         -0.89655        0.00140        0.72245
C          0.40325        0.01089        1.12351
C          1.19055        0.00483       -0.11877
C          0.31744       -0.00743       -1.12810
H          0.51854       -0.01483       -2.18011
H          2.24389        0.00926       -0.20443
H          0.74324        0.02072        2.15127
H         -1.76509        0.00225        1.35987
H         -1.85883       -0.01806       -1.13679
10
i =        6, time =        2.400, E =       -31.2253817290
C         -0.97918       -0.01183       -0.63259
C         -0.90429        0.00364        0.73577
C          0.42029        0.01565        1.08730
C          1.16404        0.00761       -0.06379
C          0.29912       -0.00937       -1.12674
H          0.56169       -0.02143       -2.16645
H          2.23406        0.01114       -0.13543
H          0.81904        0.02674        2.08277
H         -1.72785        0.00381        1.42267
H         -1.88690       -0.02596       -1.20349
10
i =        6, time =        2.400, E =       -31.2253817290
C         -0.90216       -0.01230       -0.59218
C         -0.89899        0.00253        0.73103
C          0.41764        0.01525        1.12797
C          1.19653        0.00621       -0.11748
C          0.32919       -0.01065       -1.13673
H          0.51195       -0.02121       -2.18310
H          2.23715        0.01174       -0.20857
H          0.74299        0.02882        2.15762
H         -1.76523        0.00412        1.36027
H         -1.86907       -0.02450       -1.13882
10
i =        8, time =        3.200, E =       -31.2309219917
C         -0.98761       -0.01526       -0.63655
C         -0.91072        0.00461        0.74255
C          0.42475        0.01956        1.09545
C          1.17322        0.00894       -0.06554
C          0.30033       -0.01258       -1.13598
H          0.56079       -0.02723       -2.17148
H          2.23860        0.01381       -0.13793
H          0.82275        0.03430        2.08625
H         -1.73010        0.00594        1.42732
H         -1.89200       -0.03209       -1.20410
10
i =        8, time =        3.200, E =       -31.2309219917
C         -0.91078       -0.01552       -0.59748
C         -0.90215        0.00367        0.74108
C          0.43193        0.01950        1.13249
C          1.20228        0.00759       -0.11427
C          0.34014       -0.01377       -1.14645
H          0.50640       -0.02740       -2.18910
H          2.23535        0.01411       -0.21236
H          0.74340        0.03665        2.16536
H         -1.76800        0.00590        1.36220
H         -1.87856       -0.03072       -1.14147
10
i =       10, time =        4.000, E =       -31.2358277584
C         -0.99637       -0.01857       -0.64094
C         -0.91766        0.00559        0.74952
C          0.42922        0.02342        1.10414
C          1.18291        0.01027       -0.06715
C          0.30185       -0.01568       -1.14566
H          0.56103       -0.03286       -2.17920
H          2.24607        0.01637       -0.14020
H          0.82713        0.04159        2.09257
H         -1.73486        0.00795        1.43351
H         -1.89932       -0.03806       -1.20659
10
i =       10, time =        4.000, E =       -31.2358277584
C         -0.92153       -0.01872       -0.60442
C         -0.90571        0.00481        0.75190
C          0.44536        0.02362        1.13697
C          1.20751        0.00899       -0.10931
C          0.34968       -0.01679       -1.15660
H          0.50203       -0.03339       -2.19874
H          2.23917        0.01644       -0.21577
H          0.74469        0.04420        2.17463
H         -1.77387        0.00758        1.36612
H         -1.88732       -0.03674       -1.14476
10
i =       12, time =        4.800, E =       -31.2397997073
C         -1.00493       -0.02176       -0.64554
C         -0.92475        0.00658        0.75623
C          0.43340        0.02720        1.11288
C          1.19259        0.01161       -0.06846
C          0.30365       -0.01865       -1.15522
H          0.56239       -0.03837       -2.18975
H          2.25658        0.01884       -0.14229
H          0.83227        0.04864        2.10183
H         -1.74219        0.00985        1.44132
H         -1.90899       -0.04393       -1.21102
10
i =       12, time =        4.800, E =       -31.2397997073
C         -0.93348       -0.02190       -0.61256
C         -0.90943        0.00593        0.76280
C          0.45729        0.02759        1.14134
C          1.21208        0.01042       -0.10288
C          0.35738       -0.01971       -1.16655
H          0.49901       -0.03921       -2.21224
H          2.24854        0.01878       -0.21870
H          0.74709        0.05151        2.18530
H         -1.78297        0.00915        1.37229
H         -1.89552       -0.04256       -1.14879
10
i =       14, time =        5.600, E =       -31.2425582040
C         -1.01289       -0.02482       -0.65018
C         -0.93170        0.00756        0.76235
C          0.43705        0.03092        1.12131
C          1.20180        0.01298       -0.06938
C          0.30568       -0.02147       -1.16421
H          0.56477       -0.04376       -2.20286
H          2.26985        0.02123       -0.14421
H          0.83809        0.05546        2.11377
H         -1.75187        0.01161        1.45062
H         -1.92079       -0.04971       -1.21720
10
i =       14, time =        5.600, E =       -31.2425582040
C         -0.95546        0.01786       -0.60770
C         -0.91205        0.01942        0.80022
C          0.44898        0.00008        1.14403
C          1.22632       -0.01833       -0.07869
C          0.33766       -0.01018       -1.16553
H          0.49330       -0.08151       -2.21915
H          2.28520        0.04792       -0.23769
H          0.75534        0.08416        2.16871
H         -1.80088       -0.02717        1.38950
H         -1.87841       -0.03225       -1.19370
10
i =       16, time =        6.400, E =       -31.2438496268
C         -1.02001       -0.02770       -0.65473
C         -0.93831        0.00855        0.76770
C          0.44008        0.03455        1.12915
C          1.21027        0.01438       -0.06988
C          0.30789       -0.02410       -1.17238
H          0.56798       -0.04905       -2.21791
H          2.28523        0.02352       -0.14595
H          0.84439        0.06202        2.12774
H         -1.76335        0.01325        1.46101
H         -1.93418       -0.05540       -1.22475
10
i =       16, time =        6.400, E =       -31.2438496268
C         -0.96815        0.01989       -0.61559
C         -0.91668        0.02177        0.80843
C          0.45774        0.00007        1.14596
C          1.23173       -0.02040       -0.07197
C          0.34273       -0.01153       -1.17334
H          0.49457       -0.09201       -2.23726
H          2.30030        0.05364       -0.23926
H          0.76133        0.09433        2.18243
H         -1.81644       -0.03091        1.39928
H         -1.88713       -0.03485       -1.19868
10
i =       18, time =        7.200, E =       -31.2436066380
C         -1.02621       -0.03038       -0.65907
C         -0.94444        0.00956        0.77224
C          0.44249        0.03809        1.13629
C          1.21789        0.01579       -0.07002
C          0.31018       -0.02653       -1.17961
H          0.57177       -0.05424       -2.23396
H          2.30174        0.02565       -0.14747
H          0.85081        0.06829        2.14287
H         -1.77589        0.01475        1.47188
H         -1.94835       -0.06098       -1.23315
10
i =       18, time =        7.200, E =       -31.2436066380
C         -0.97996        0.02183       -0.62315
C         -0.92127        0.02402        0.81477
C          0.46536        0.00020        1.14781
C          1.23661       -0.02221       -0.06584
C          0.34650       -0.01281       -1.18023
H          0.49731       -0.10209       -2.25663
H          2.31631        0.05900       -0.23910
H          0.76856        0.10396        2.19646
H         -1.83298       -0.03440        1.41036
H         -1.89643       -0.03750       -1.20445
10
i =       20, time =        8.000, E =       -31.2420775731
C         -1.03155       -0.03282       -0.66313
C         -0.95003        0.01062        0.77604
C          0.44437        0.04153        1.14268
C          1.22463        0.01720       -0.06989
C          0.31247       -0.02875       -1.18594
H          0.57584       -0.05930       -2.24993
H          2.31828        0.02757       -0.14869
H          0.85697        0.07420        2.15810
H         -1.78862        0.01614        1.48253
H         -1.96236       -0.06637       -1.24179
10
i =       20, time =        8.000, E =       -31.2420775731
C         -0.99060        0.02367       -0.63014
C         -0.92580        0.02616        0.81928
C          0.47180        0.00052        1.14979
C          1.24112       -0.02374       -0.06051
C          0.34897       -0.01405       -1.18619
H          0.50138       -0.11167       -2.27575
H          2.33190        0.06389       -0.23697
H          0.77683        0.11293        2.20948
H         -1.84912       -0.03754        1.42207
H         -1.90650       -0.04018       -1.21105
10
i =       22, time =        8.800, E =       -31.2397885571
C         -1.03613       -0.03499       -0.66683
C         -0.95505        0.01174        0.77923
C          0.44584        0.04484        1.14834
C          1.23056        0.01857       -0.06960
C          0.31465       -0.03077       -1.19143
H          0.57993       -0.06422       -2.26477
H          2.33376        0.02922       -0.14954
H          0.86245        0.07968        2.17243
H         -1.80069        0.01743        1.49226
H         -1.97530       -0.07150       -1.25009
10
i =       22, time =        8.800, E =       -31.2397885571
C         -0.99994        0.02540       -0.63647
C         -0.93026        0.02817        0.82210
C          0.47707        0.00108        1.15207
C          1.24543       -0.02498       -0.05612
C          0.35018       -0.01526       -1.19129
H          0.50658       -0.12064       -2.29316
H          2.34590        0.06823       -0.23267
H          0.78591        0.12115        2.22029
H         -1.86353       -0.04023        1.43366
H         -1.91732       -0.04292       -1.21842
10
i =       24, time =        9.600, E =       -31.2373626892
C         -1.04009       -0.03686       -0.67015
C         -0.95952        0.01295        0.78193
C          0.44703        0.04801        1.15331
C          1.23574        0.01988       -0.06925
C          0.31665       -0.03258       -1.19621
H          0.58379       -0.06896       -2.27757
H          2.34723        0.03052       -0.14997
H          0.86692        0.08467        2.18499
H         -1.81139        0.01866        1.50047
H         -1.98637       -0.07629       -1.25754
10
i =       24, time =        9.600, E =       -31.2373626892
C         -1.00802        0.02701       -0.64212
C         -0.93470        0.03005        0.82338
C          0.48116        0.00192        1.15473
C          1.24959       -0.02592       -0.05274
C          0.35021       -0.01651       -1.19566
H          0.51268       -0.12890       -2.30760
H          2.35735        0.07193       -0.22608
H          0.79559        0.12851        2.22798
H         -1.87514       -0.04239        1.44449
H         -1.92871       -0.04570       -1.22637
10
i =       26, time =       10.400, E =       -31.2353380417
C         -1.04353       -0.03843       -0.67308
C         -0.96344        0.01425        0.78425
C          0.44803        0.05103        1.15764
C          1.24027        0.02109       -0.06893
C          0.31844       -0.03420       -1.20037
H          0.58723       -0.07351       -2.28762
H          2.35796        0.03144       -0.14995
H          0.87013        0.08914        2.19508
H         -1.82012        0.01986        1.50672
H         -1.99497       -0.08067       -1.26374
10
i =       26, time =       10.400, E =       -31.2353380417
C         -1.01495        0.02846       -0.64715
C         -0.93915        0.03176        0.82326
C          0.48409        0.00306        1.15779
C          1.25363       -0.02655       -0.05041
C          0.34915       -0.01781       -1.19939
H          0.51944       -0.13637       -2.31815
H          2.36559        0.07493       -0.21720
H          0.80566        0.13495        2.23193
H         -1.88315       -0.04393        1.45398
H         -1.94031       -0.04851       -1.23466
10
i =       28, time =       11.200, E =       -31.2340539368
C         -1.04652       -0.03969       -0.67561
C         -0.96683        0.01566        0.78627
C          0.44891        0.05389        1.16138
C          1.24420        0.02216       -0.06866
C          0.31997       -0.03567       -1.20398
H          0.59009       -0.07784       -2.29445
H          2.36546        0.03193       -0.14947
H          0.87193        0.09305        2.20224
H         -1.82650        0.02106        1.51070
H         -2.00069       -0.08456       -1.26841
10
i =       28, time =       11.200, E =       -31.2340539368
C         -1.02089        0.02973       -0.65165
C         -0.94363        0.03331        0.82191
C          0.48586        0.00452        1.16114
C          1.25745       -0.02687       -0.04910
C          0.34710       -0.01921       -1.20259
H          0.52663       -0.14301       -2.32422
H          2.37028        0.07719       -0.20609
H          0.81596        0.14043        2.23185
H         -1.88711       -0.04480        1.46171
H         -1.95166       -0.05130       -1.24296
10
i =       30, time =       12.000, E =       -31.2336120414
C         -1.04910       -0.04067       -0.67774
C         -0.96972        0.01718        0.78800
C          0.44969        0.05658        1.16455
C          1.24755        0.02308       -0.06848
C          0.32124       -0.03702       -1.20707
H          0.59227       -0.08194       -2.29784
H          2.36949        0.03200       -0.14856
H          0.87225        0.09643        2.20623
H         -1.83032        0.02230        1.51228
H         -2.00335       -0.08794       -1.27138
10
i =       30, time =       12.000, E =       -31.2336120414
C         -1.02604        0.03079       -0.65571
C         -0.94816        0.03467        0.81945
C          0.48648        0.00630        1.16461
C          1.26092       -0.02692       -0.04877
C          0.34415       -0.02075       -1.20533
H          0.53402       -0.14877       -2.32555
H          2.37135        0.07871       -0.19294
H          0.82635        0.14497        2.22775
H         -1.88684       -0.04495        1.46743
H         -1.96225       -0.05404       -1.25092
10
i =       32, time =       12.800, E =       -31.2339027857
C         -1.05125       -0.04138       -0.67946
C         -0.97207        0.01879        0.78945
C          0.45037        0.05908        1.16712
C          1.25031        0.02382       -0.06838
C          0.32225       -0.03827       -1.20963
H          0.59372       -0.08583       -2.29778
H          2.37001        0.03166       -0.14725
H          0.87113        0.09930        2.20702
H         -1.83152        0.02362        1.51150
H         -2.00296       -0.09079       -1.27261
10
i =       32, time =       12.800, E =       -31.2339027857
C         -1.03055        0.03161       -0.65943
C         -0.95271        0.03583        0.81599
C          0.48597        0.00838        1.16796
C          1.26381       -0.02669       -0.04933
C          0.34039       -0.02247       -1.20765
H          0.54141       -0.15367       -2.32219
H          2.36900        0.07950       -0.17805
H          0.83671        0.14859        2.21992
H         -1.88242       -0.04438        1.47100
H         -1.97161       -0.05670       -1.25822
10
i =       34, time =       13.600, E =       -31.2346666429
C         -1.05293       -0.04187       -0.68075
C         -0.97386        0.02048        0.79058
C          0.45093        0.06141        1.16907
C          1.25243        0.02436       -0.06834
C          0.32299       -0.03947       -1.21160
H          0.59445       -0.08950       -2.29449
H          2.36726        0.03094       -0.14562
H          0.86871        0.10173        2.20478
H         -1.83024        0.02506        1.50853
H         -1.99974       -0.09313       -1.27217
10
i =       34, time =       13.600, E =       -31.2346666429
C         -1.03461        0.03215       -0.66290
C         -0.95723        0.03679        0.81166
C          0.48432        0.01075        1.17090
C          1.26587       -0.02623       -0.05068
C          0.33591       -0.02440       -1.20955
H          0.54862       -0.15772       -2.31445
H          2.36369        0.07959       -0.16179
H          0.84694        0.15136        2.20891
H         -1.87419       -0.04308        1.47245
H         -1.97931       -0.05922       -1.26455
10
i =       36, time =       14.400, E =       -31.2355804460
C         -1.05407       -0.04218       -0.68158
C         -0.97504        0.02223        0.79133
C          0.45133        0.06355        1.17033
C          1.25384        0.02469       -0.06836
C          0.32345       -0.04066       -1.21290
H          0.59452       -0.09297       -2.28843
H          2.36167        0.02989       -0.14374
H          0.86520        0.10381        2.19993
H         -1.82681        0.02663        1.50369
H         -1.99410       -0.09499       -1.27027
10
i =       36, time =       14.400, E =       -31.2355804460
C         -1.03834        0.03240       -0.66619
C         -0.96164        0.03753        0.80652
C          0.48157        0.01339        1.17311
C          1.26683       -0.02555       -0.05270
C          0.33079       -0.02656       -1.21100
H          0.55552       -0.16100       -2.30298
H          2.35608        0.07905       -0.14459
H          0.85700        0.15339        2.19551
H         -1.86274       -0.04108        1.47200
H         -1.98506       -0.06157       -1.26968
10
i =       38, time =       15.200, E =       -31.2363587727
C         -1.05458       -0.04235       -0.68192
C         -0.97555        0.02402        0.79163
C          0.45151        0.06552        1.17080
C          1.25445        0.02481       -0.06840
C          0.32364       -0.04185       -1.21344
H          0.59406       -0.09630       -2.28027
H          2.35392        0.02858       -0.14169
H          0.86088        0.10563        2.19307
H         -1.82172        0.02837        1.49745
H         -1.98662       -0.09643       -1.26723
10
i =       38, time =       15.200, E =       -31.2363587727
C         -1.04185        0.03232       -0.66934
C         -0.96580        0.03804        0.80068
C          0.47774        0.01626        1.17430
C          1.26642       -0.02469       -0.05528
C          0.32513       -0.02898       -1.21193
H          0.56201       -0.16358       -2.28872
H          2.34704        0.07796       -0.12694
H          0.86689        0.15480        2.18068
H         -1.84891       -0.03842        1.46999
H         -1.98866       -0.06372       -1.27345
10
i =       40, time =       16.000, E =       -31.2368630257
C         -1.05434       -0.04242       -0.68171
C         -0.97530        0.02582        0.79138
C          0.45142        0.06732        1.17041
C          1.25414        0.02473       -0.06844
C          0.32353       -0.04309       -1.21311
H          0.59327       -0.09951       -2.27083
H          2.34485        0.02710       -0.13956
H          0.85608        0.10731        2.18498
H         -1.81561        0.03028        1.49036
H         -1.97804       -0.09754       -1.26348
10
i =       40, time =       16.000, E =       -31.2368630257
C         -1.04517        0.03191       -0.67237
C         -0.96956        0.03833        0.79419
C          0.47289        0.01933        1.17419
C          1.26443       -0.02365       -0.05826
C          0.31903       -0.03164       -1.21222
H          0.56807       -0.16558       -2.27285
H          2.33755        0.07640       -0.10929
H          0.87661        0.15572        2.16546
H         -1.83379       -0.03517        1.46695
H         -1.99006       -0.06564       -1.27580
10
i =       42, time =       16.800, E =       -31.2371684856
C         -1.05327       -0.04244       -0.68091
C         -0.97423        0.02761        0.79052
C          0.45100        0.06897        1.16904
C          1.25281        0.02447       -0.06846
C          0.32312       -0.04438       -1.21179
H          0.59235       -0.10265       -2.26101
H          2.33539        0.02551       -0.13742
H          0.85116        0.10896        2.17653
H         -1.80919        0.03237        1.48303
H         -1.96914       -0.09841       -1.25952
10
i =       42, time =       16.800, E =       -31.2371684856
C         -1.04833        0.03115       -0.67525
C         -0.97273        0.03839        0.78713
C          0.46713        0.02258        1.17259
C          1.26071       -0.02246       -0.06152
C          0.31263       -0.03455       -1.21174
H          0.57374       -0.16714       -2.25676
H          2.32851        0.07444       -0.09208
H          0.88621        0.15629        2.15086
H         -1.81856       -0.03137        1.46354
H         -1.98933       -0.06733       -1.27676
10
i =       44, time =       17.600, E =       -31.2375235046
C         -1.05128       -0.04244       -0.67948
C         -0.97228        0.02938        0.78898
C          0.45022        0.07047        1.16663
C          1.25037        0.02404       -0.06844
C          0.32239       -0.04574       -1.20940
H          0.59154       -0.10579       -2.25167
H          2.32642        0.02387       -0.13532
H          0.84643        0.11067        2.16851
H         -1.80314        0.03466        1.47601
H         -1.96067       -0.09912       -1.25581
10
i =       44, time =       17.600, E =       -31.2375235046
C         -1.05124        0.03004       -0.67795
C         -0.97509        0.03825        0.77960
C          0.46060        0.02599        1.16937
C          1.25523       -0.02111       -0.06487
C          0.30607       -0.03768       -1.21035
H          0.57916       -0.16837       -2.24181
H          2.32068        0.07215       -0.07568
H          0.89567        0.15661        2.13769
H         -1.80441       -0.02709        1.46043
H         -1.98668       -0.06878       -1.27643
10
i =       46, time =       18.400, E =       -31.2382141011
C         -1.04834       -0.04242       -0.67742
C         -0.96942        0.03112        0.78674
C          0.44905        0.07184        1.16315
C          1.24679        0.02347       -0.06838
C          0.32135       -0.04715       -1.20591
H          0.59099       -0.10896       -2.24348
H          2.31864        0.02220       -0.13332
H          0.84216        0.11249        2.16159
H         -1.79800        0.03714        1.46976
H         -1.95323       -0.09973       -1.25272
10
i =       46, time =       18.400, E =       -31.2382141011
C         -1.05381        0.02860       -0.68039
C         -0.97646        0.03793        0.77171
C          0.45350        0.02954        1.16452
C          1.24805       -0.01961       -0.06817
C          0.29953       -0.04101       -1.20791
H          0.58450       -0.16941       -2.22913
H          2.31448        0.06955       -0.06038
H          0.90492        0.15676        2.12646
H         -1.79228       -0.02236        1.45829
H         -1.98243       -0.06999       -1.27501
10
i =       48, time =       19.200, E =       -31.2393796037
C         -1.04448       -0.04237       -0.67473
C         -0.96569        0.03284        0.78381
C          0.44749        0.07309        1.15862
C          1.24210        0.02276       -0.06827
C          0.32001       -0.04860       -1.20134
H          0.59081       -0.11222       -2.23688
H          2.31248        0.02050       -0.13146
H          0.83854        0.11447        2.15616
H         -1.79408        0.03982        1.46457
H         -1.94718       -0.10028       -1.25047
10
i =       48, time =       19.200, E =       -31.2393796037
C         -1.05589        0.02683       -0.68245
C         -0.97669        0.03747        0.76366
C          0.44607        0.03325        1.15815
C          1.23935       -0.01795       -0.07125
C          0.29321       -0.04450       -1.20438
H          0.58991       -0.17033       -2.21948
H          2.31000        0.06665       -0.04642
H          0.91382        0.15677        2.11732
H         -1.78276       -0.01719        1.45759
H         -1.97703       -0.07100       -1.27274
10
i =       50, time =       20.000, E =       -31.2409092552
C         -1.03978       -0.04229       -0.67149
C         -0.96117        0.03455        0.78025
C          0.44559        0.07423        1.15315
C          1.23641        0.02191       -0.06811
C          0.31840       -0.05010       -1.19580
H          0.59099       -0.11559       -2.23196
H          2.30804        0.01875       -0.12977
H          0.83561        0.11659        2.15230
H         -1.79145        0.04272        1.46052
H         -1.94264       -0.10077       -1.24910
10
i =       50, time =       20.000, E =       -31.2409092552
C         -1.05733        0.02475       -0.68402
C         -0.97572        0.03689        0.75566
C          0.43860        0.03712        1.15046
C          1.22946       -0.01611       -0.07395
C          0.28734       -0.04812       -1.19980
H          0.59554       -0.17118       -2.21308
H          2.30697        0.06341       -0.03396
H          0.92211        0.15662        2.11009
H         -1.77600       -0.01155        1.45854
H         -1.97096       -0.07182       -1.26994
10
i =       52, time =       20.800, E =       -31.2424813031
C         -1.03441       -0.04216       -0.66780
C         -0.95601        0.03628        0.77619
C          0.44342        0.07527        1.14693
C          1.22992        0.02093       -0.06792
C          0.31656       -0.05165       -1.18948
H          0.59146       -0.11908       -2.22854
H          2.30514        0.01688       -0.12826
H          0.83334        0.11882        2.14984
H         -1.78996        0.04587        1.45751
H         -1.93945       -0.10116       -1.24848
10
i =       52, time =       20.800, E =       -31.2424813031
C         -1.05797        0.02236       -0.68500
C         -0.97357        0.03625        0.74801
C          0.43140        0.04117        1.14175
C          1.21877       -0.01408       -0.07614
C          0.28215       -0.05187       -1.19431
H          0.60140       -0.17194       -2.20966
H          2.30488        0.05976       -0.02314
H          0.92945        0.15627        2.10435
H         -1.77174       -0.00542        1.46108
H         -1.96476       -0.07252       -1.26694
10
i =       54, time =       21.600, E =       -31.2437325869
C         -1.02860       -0.04196       -0.66381