      10
 i =        0, time =        0.000, E =       -31.2106218402
  C         0.0000000000        0.0000000000        0.0000000000
  C         0.0000000000        0.0000000000        1.3010000000
  C         1.2725100000        0.0000000000        1.7046640000
  C         2.0747330000        0.0000000000        0.4740550000
  C         1.1894440000        0.0000000000       -0.5270890000
  H         1.4290770000        0.0000000000       -1.5904220000
  H         3.1618060000        0.0000000000        0.3942250000
  H         1.6399430000        0.0000000000        2.7308670000
  H        -0.8750710000        0.0000000000        1.9508850000
  H        -0.9420960000       -0.0153760000       -0.5460230000
      10
 i =        2, time =        0.800, E =       -31.2145773817
  C        -0.0031504300        0.0026882549        0.0011194482
  C        -0.0042504605        0.0001279838        1.3048991647
  C         1.2805036517        0.0022277988        1.7082859463
  C         2.0756887262       -0.0057894599        0.4710272200
  C         1.1964454268        0.0005627411       -0.5321515215
  H         1.4168561679       -0.0123077037       -1.5902345841
  H         3.1451854595        0.0058329186        0.3890739439
  H         1.6348096233        0.0144550771        2.7350336452
  H        -0.8760414612       -0.0047549218        1.9495201438
  H        -0.9571133727       -0.0179293955       -0.5464845929
      10
 i =        4, time =        1.600, E =       -31.2196908288
  C        -0.0093520158        0.0050878155       -0.0002592962
  C        -0.0093945640        0.0002622684        1.3111841963
  C         1.2904196179        0.0045451147        1.7122815647
  C         2.0777511582       -0.0115968323        0.4700946018
  C         1.2045302361        0.0011172830       -0.5394162896
  H         1.4057176708       -0.0245724497       -1.5912709568
  H         3.1309899058        0.0117556027        0.3842845182
  H         1.6303369931        0.0282269397        2.7399144424
  H        -0.8778711927       -0.0093005390        1.9486810876
  H        -0.9716480119       -0.0205060579       -0.5480219536
      10
 i =        6, time =        2.400, E =       -31.2253817290
  C        -0.0182505801        0.0073606852       -0.0039675079
  C        -0.0149524597        0.0004165505        1.3194545362
  C         1.3016787381        0.0069466805        1.7164497591
  C         2.0806402833       -0.0173827362        0.4712027327
  C         1.2131091746        0.0016515820       -0.5484195318
  H         1.3960384873       -0.0367401369       -1.5944459023
  H         3.1210443452        0.0177731188        0.3797882158
  H         1.6268959948        0.0412637181        2.7458338483
  H        -0.8810600896       -0.0136223546        1.9488429160
  H        -0.9850243096       -0.0230957828       -0.5503791653
      10
 i =        8, time =        3.200, E =       -31.2309219917
  C        -0.0293116074        0.0095759700       -0.0097699974
  C        -0.0204636847        0.0006051162        1.3291198660
  C         1.3136019670        0.0094250062        1.7206141028
  C         2.0840702086       -0.0231086191        0.4742159841
  C         1.2216184026        0.0021557765       -0.5585833065
  H         1.3881496790       -0.0487871181       -1.6006451609
  H         3.1167726080        0.0239134948        0.3755474273
  H         1.6248452263        0.0535403362        2.7530478546
  H        -0.8861118589       -0.0177128084        1.9505044974
  H        -0.9968895148       -0.0256915770       -0.5534451757
      10
 i =       10, time =        4.000, E =       -31.2358277584
  C        -0.0416776688        0.0117210758       -0.0173306354
  C        -0.0255477517        0.0008428177        1.3394754964
  C         1.3254870023        0.0119709792        1.7246469239
  C         2.0878107381       -0.0287321352        0.4789204720
  C         1.2295311315        0.0026189833       -0.5692710310
  H         1.3822979430       -0.0607107623       -1.6105275733
  H         3.1189280961        0.0302085158        0.3715771069
  H         1.6244970766        0.0650456916        2.7616642579
  H        -0.8934102154       -0.0215688778        1.9540873683
  H        -1.0071878975       -0.0282914758       -0.5572398974
      10
 i =       12, time =        4.800, E =       -31.2397997073
  C        -0.0544097200        0.0137822947       -0.0262041780
  C        -0.0299461207        0.0011442240        1.3498113638
  C         1.3367033734        0.0145774701        1.7284790404
  C         2.0917337636       -0.0342042779        0.4850270158
  C         1.2364374402        0.0030296243       -0.5798744779
  H         1.3786230391       -0.0725064558       -1.6243175215
  H         3.1274336644        0.0366655627        0.3679658164
  H         1.6260910574        0.0757710614        2.7715725528
  H        -0.9030852994       -0.0251870645        1.9598326949
  H        -1.0161013444       -0.0309009583       -0.5618922133
      10
 i =       14, time =        5.600, E =       -31.2425582040
  C        -0.0666625664        0.0157515579       -0.0358746395
  C        -0.0335361425        0.0015223915        1.3595237398
  C         1.3467769151        0.0172446412        1.7320998432
  C         2.0958267366       -0.0394694456        0.4921786317
  C         1.2420811526        0.0033722617       -0.5899138634
  H         1.3771554959       -0.0841417781       -1.6416498187
  H         3.1413796872        0.0432444845        0.3648853842
  H         1.6297800620        0.0857012175        2.7824145656
  H        -0.9149097793       -0.0285572149        1.9677278106
  H        -1.0239608715       -0.0335330521       -0.5676043591
      10
 i =       16, time =        6.400, E =       -31.2438496268
  C        -0.0778189163        0.0176231539       -0.0458023009
  C        -0.0363150787        0.0019876443        1.3681880584
  C         1.3554290823        0.0199824207        1.7355508609
  C         2.1001697900       -0.0444681328        0.4999700202
  C         1.2463449156        0.0036243072       -0.5990825140
  H         1.3778304073       -0.0955417988       -1.6615432030
  H         3.1591888787        0.0498484750        0.3625802209
  H         1.6356277012        0.0948144280        2.7936043629
  H        -0.9282701295       -0.0316579130        1.9774905993
  H        -1.0311461604       -0.0362063567       -0.5746050944
      10
 i =       18, time =        7.200, E =       -31.2436066380
  C        -0.0875389537        0.0193914383       -0.0554752831
  C        -0.0383666105        0.0025470502        1.3755713483
  C         1.3625645504        0.0228068506        1.7389108781
  C         2.1048891332       -0.0491408484        0.5079795096
  C         1.2492152672        0.0037551914       -0.6072362509
  H         1.3805094832       -0.1065879862       -1.6825435173
  H         3.1789177603        0.0563315602        0.3613365781
  H         1.6436137194        0.1030848231        2.8043966211
  H        -0.9422285407       -0.0344551227        1.9886104359
  H        -1.0379850330       -0.0389409137       -0.5830950596
      10
 i =       20, time =        8.000, E =       -31.2420775731
  C        -0.0957263298        0.0210524071       -0.0644659167
  C        -0.0398237698        0.0032046730        1.3815996534
  C         1.3682215929        0.0257329230        1.7422728219
  C         2.1101064033       -0.0534317678        0.5158074182
  C         1.2507483689        0.0037278451       -0.6143493719
  H         1.3850027683       -0.1171305901       -1.7029886518
  H         3.1986092963        0.0625232124        0.3614429193
  H         1.6536429352        0.1104880121        2.8139802757
  H        -0.9556601525       -0.0369045596        2.0004256607
  H        -1.0446697204       -0.0417531261       -0.5931930007
      10
 i =       22, time =        8.800, E =       -31.2397885571
  C        -0.1024528088        0.0226029804       -0.0724724386
  C        -0.0408350785        0.0039625999        1.3863083468
  C         1.3725140812        0.0287731161        1.7457181996
  C         2.1158990356       -0.0572908054        0.5231122274
  C         1.2510447281        0.0035013451       -0.6204627519
  H         1.3910856808       -0.1270088387       -1.7213032988
  H         3.2165843277        0.0682507788        0.3631538501
  H         1.6655547974        0.1170076538        2.8215666081
  H        -0.9674201194       -0.0389568445        2.0122280490
  H        -1.0512092225       -0.0446483925       -0.6048964668
      10
 i =       24, time =        9.600, E =       -31.2373626892
  C        -0.1078775722        0.0240362923       -0.0793284541
  C        -0.0415385637        0.0048221342        1.3897947081
  C         1.3755902091        0.0319373800        1.7492972049
  C         2.1222769575       -0.0606755627        0.5296359848
  C         1.2502321299        0.0030333761       -0.6256415732
  H         1.3985113144       -0.1360728190       -1.7362032874
  H         3.2316265050        0.0733593749        0.3666640342
  H         1.6791326702        0.1226411134        2.8264747157
  H        -0.9764866444       -0.0405628259        2.0233533397
  H        -1.0574267073       -0.0476175516       -0.6180534179
      10
 i =       26, time =       10.400, E =       -31.2353380417
  C        -0.1121863235        0.0253391408       -0.0849829226
  C        -0.0420444685        0.0057846927        1.3921824852
  C         1.3776067824        0.0352306772        1.7530134764
  C         2.1291727754       -0.0635535992        0.5352148967
  C         1.2484565545        0.0022819955       -0.6299473556
  H         1.4070194394       -0.1441992438       -1.7467962897
  H         3.2430264495        0.0777247401        0.3720937991
  H         1.6941141407        0.1274031283        2.8281866369
  H        -0.9820363554       -0.0416770499        2.0332443844
  H        -1.0629924540       -0.0506361179       -0.6323664579
      10
 i =       28, time =       11.200, E =       -31.2340539368
  C        -0.1155560217        0.0264932622       -0.0894691700
  C        -0.0424268208        0.0068524853        1.3935986734
  C         1.3787144247        0.0386519424        1.7568161424
  C         2.1364406042       -0.0659045183        0.5397744334
  C         1.2458765294        0.0012068753       -0.6334233936
  H         1.4163458919       -0.1512959722       -1.7525839822
  H         3.2505393145        0.0812604553        0.3794811394
  H         1.7102099837        0.1313282804        2.8263837407
  H        -0.9834834603       -0.0422613119        2.0414871861
  H        -1.0674808392       -0.0536655641       -0.6474185926
      10
 i =       30, time =       12.000, E =       -31.2336120414
  C        -0.1181391890        0.0274779165       -0.0928744324
  C        -0.0427208813        0.0080288778        1.3941601264
  C         1.3790510755        0.0421939160        1.7605974511
  C         2.1438617218       -0.0677190333        0.5433134453
  C         1.2426598940       -0.0002297000       -0.6360878061
  H         1.4262350137       -0.1573081654       -1.7534127401
  H         3.2543068019        0.0839211138        0.3887785831
  H         1.7271117569        0.1344720219        2.8209750332
  H        -0.9804903137       -0.0422871729        2.0478267535
  H        -1.0704415457       -0.0566570006       -0.6627136113
      10
 i =       32, time =       12.800, E =       -31.2339027857
  C        -0.1200595667        0.0282721502       -0.0953147670
  C        -0.0429236703        0.0093186428        1.3939668239
  C         1.3787395809        0.0458429891        1.7641965846
  C         2.1511592309       -0.0689958445        0.5458844248
  C         1.2389805228       -0.0020618211       -0.6379311944
  H         1.4364452314       -0.1622187528       -1.7494223693
  H         3.2547796703        0.0857034338        0.3998527827
  H         1.7445137149        0.1369074839        2.8121208317
  H        -0.9729745516       -0.0417373224        2.0521726052
  H        -1.0714634583       -0.0595569817       -0.6777248778
      10
 i =       34, time =       13.600, E =       -31.2346666429
  C        -0.1214127138        0.0288560032       -0.0969164177
  C        -0.0429961775        0.0107282277        1.3930976235
  C         1.3778870300        0.0495793199        1.7674078309
  C         2.1580207801       -0.0697390240        0.5475750729
  C         1.2350128905       -0.0043188861       -0.6389164052
  H         1.4467607424       -0.1660495738       -1.7410171871
  H         3.2526552315        0.0866459711        0.4124882905
  H         1.7621410046        0.1387243209        2.8002528707
  H        -0.9611313885       -0.0406066814        2.0546014986
  H        -1.0702219858       -0.0623106309       -0.6919433430
      10
 i =       36, time =       14.400, E =       -31.2355804460
  C        -0.1222686337        0.0292111872       -0.0978027295
  C        -0.0428656225        0.0122656671        1.3916087942
  C         1.3765847810        0.0533771832        1.7699926962
  C         2.1641246373       -0.0699564809        0.5484933252
  C         1.2309267601       -0.0070248728       -0.6389803611
  H         1.4570069173       -0.1688613772       -1.7288577128
  H         3.2488156380        0.0868251450        0.4263975623
  H         1.7797682081        0.1400250252        2.7860655862
  H        -0.9454628679       -0.0389032059        2.0553616857
  H        -1.0665141769       -0.0648669769       -0.7049244489
      10
 i =       38, time =       15.200, E =       -31.2363587727
  C        -0.1226745854        0.0293212978       -0.0980856960
  C        -0.0424299670        0.0139407042        1.3895328228
  C         1.3749100337        0.0572060304        1.7716962023
  C         2.1691657473       -0.0696592652        0.5487546798
  C         1.2268804604       -0.0101977175       -0.6380380708
  H         1.4670620288       -0.1707512106       -1.7138515471
  H         3.2442528151        0.0863464717        0.4412399040
  H         1.7972308881        0.1409192561        2.7704703275
  H        -0.9268139523       -0.0366475989        2.0548703164
  H        -1.0602785361       -0.0671830657       -0.7163062447
      10
 i =       40, time =       16.000, E =       -31.2368630257
  C        -0.1226577944        0.0291718985       -0.0978612878
  C        -0.0415658157        0.0157644208        1.3868801318
  C         1.3729298776        0.0610323181        1.7722669053
  C         2.1728788857       -0.0688606694        0.5484719120
  C         1.2230152600       -0.0138489057       -0.6359905697
  H         1.4768624407       -0.1718459393       -1.6971131620
  H         3.2399628634        0.0853289463        0.4566445064
  H         1.8144148495        0.1415156771        2.7545056033
  H        -0.9063616370       -0.0338719568        2.0537023971
  H        -1.0516087147       -0.0692275777       -0.7258326099
      10
 i =       42, time =       16.800, E =       -31.2371684856
  C        -0.1222284022        0.0287504484       -0.0972075949
  C        -0.0401421838        0.0177484309        1.3836456062
  C         1.3707082892        0.0648218982        1.7714801655
  C         2.1750583417       -0.0675749130        0.5477478963
  C         1.2194519708       -0.0179828017       -0.6327397438
  H         1.4863982447       -0.1722910000       -1.6798671067
  H         3.2368151581        0.0838836236        0.4722400174
  H         1.8312120557        0.1419121328        2.7391853133
  H        -0.8855173031       -0.0306173087        2.0525553261
  H        -1.0407567165       -0.0709835624       -0.7333644981
      10
 i =       44, time =       17.600, E =       -31.2375235046
  C        -0.1213825971        0.0280460586       -0.0961846473
  C        -0.0380423609        0.0199035485        1.3798211275
  C         1.3683154104        0.0685426478        1.7691626756
  C         2.1755744306       -0.0658153309        0.5466709740
  C         1.2162920469       -0.0225955261       -0.6282108761
  H         1.4956960051       -0.1722341833       -1.6633078458
  H         3.2354169336        0.0820894834        0.4876811295
  H         1.8474811684        0.1421869243        2.7253413262
  H        -0.8657439231       -0.0269271065        2.0521733559
  H        -1.0281375618       -0.0724501480       -0.7388814274
      10
 i =       46, time =       18.400, E =       -31.2382141011
  C        -0.1201066355        0.0270491328       -0.0948358615
  C        -0.0351907222        0.0222379676        1.3754155830
  C         1.3658354970        0.0721666209        1.7652162486
  C         2.1743858843       -0.0635929538        0.5453146150
  C         1.2136232940       -0.0276746459       -0.6223828717
  H         1.5047896094       -0.1718066628       -1.6484419406
  H         3.2360147063        0.0799746249        0.5026634609
  H         1.8630008017        0.1423926355        2.7134978443
  H        -0.8483126239       -0.0228376757        2.0532301274
  H        -1.0143203628       -0.0736433931       -0.7424769846
      10
 i =       48, time =       19.200, E =       -31.2393796037
  C        -0.1183820397        0.0257507721       -0.0931906945
  C        -0.0315801473        0.0247553463        1.3704769944
  C         1.3633715960        0.0756714553        1.7596367793
  C         2.1715482820       -0.0609161635        0.5437391003
  C         1.2115267868       -0.0332010739       -0.6153175868
  H         1.5136875008       -0.1711062745       -1.6359442979
  H         3.2384551936        0.0775073356        0.5169261427
  H         1.8774439177        0.1425556632        2.7038166194
  H        -0.8341032033       -0.0183686712        2.0561938528
  H        -0.9999931636       -0.0745953446       -0.7443471424
      10
 i =       50, time =       20.000, E =       -31.2409092552
  C        -0.1161920032        0.0241419445       -0.0912691507
  C        -0.0272899760        0.0274531978        1.3651104389
  C         1.3610445754        0.0790417112        1.7525249677
  C         2.1672153855       -0.0577921838        0.5419948619
  C         1.2100810875       -0.0391513806       -0.6071810120
  H         1.5223439083       -0.1701884285       -1.6260875157
  H         3.2422236207        0.0746009629        0.5302446833
  H         1.8903923336        0.1426808955        2.6961162505
  H        -0.8234828224       -0.0135168732        2.0612151896
  H        -0.9859107063       -0.0753513255       -0.7447707138
      10
 i =       52, time =       20.800, E =       -31.2424813031
  C        -0.1135288141        0.0222121064       -0.0890880183
  C        -0.0224865692        0.0303221955        1.3594834393
  C         1.3589881166        0.0822720350        1.7440869324
  C         2.1616317716       -0.0542300633        0.5401258952
  C         1.2093621751       -0.0454988472       -0.5982471040
  H         1.5306394714       -0.1690684227       -1.6187570577
  H         3.2465498829        0.0711303677        0.5424192742
  H         1.9013699244        0.1427600192        2.6899586734
  H        -0.8163057117       -0.0082561776        2.0680834740
  H        -0.9728242585       -0.0759649096       -0.7440791857
      10
 i =       54, time =       21.600, E =       -31.2437325869
  C        -0.1104017543        0.0199473785       -0.0866679313
  C        -0.0174057959        0.0333468886        1.3538150718
  C         1.3573371050        0.0853700938        1.7346298912
  C         2.1551165640       -0.0502439353        0.5381718749
  C         1.2094397498       -0.0522122541       -0.5888784282
  H         1.5383941991       -0.1677337672       -1.6135367525
  H         3.2505444585        0.0669529604        0.5532701927
  H         1.9099034770        0.1427807998        2.6847672914
  H        -0.8120202867       -0.0025442627        2.0762578005
  H        -0.9614029684       -0.0764911975       -0.7426170899
      10
 i =       56, time =       22.400, E =       -31.2444349070
  C        -0.1068434027        0.0173278415       -0.0840403025
  C        -0.0123195528        0.0365079299        1.3483514169
  C         1.3562026180        0.0883542583        1.7245467609
  C         2.1480393746       -0.0458565973        0.5361688470
  C         1.2103683897       -0.0592520593       -0.5794870692
  H         1.5453974400       -0.1661613735       -1.6098348615
  H         3.2533418482        0.0619299213        0.5626394606
  H         1.9155893572        0.1427348885        2.6799347685
  H        -0.8098317546        0.0036676253        2.0849731472
  H        -0.9521571269       -0.0769790932       -0.7406947459
      10
 i =       58, time =       23.200, E =       -31.2445702303
  C        -0.1029132375        0.0143241803       -0.0812530876
  C        -0.0074993202        0.0397846427        1.3433360790
  C         1.3556723951        0.0912500258        1.7142846060
  C         2.1407907646       -0.0411020647        0.5341486130
  C         1.2121790836       -0.0665666038       -0.5704846171
  H         1.5514438011       -0.1643342604       -1.6070123984
  H         3.2542105861        0.0559409681        0.5703946936
  H         1.9181375223        0.1426225143        2.6749087362
  H        -0.8088683497        0.0104255785        2.0933790946
  H        -0.9453924758       -0.0774644177       -0.7385443220
      10
 i =       60, time =       24.000, E =       -31.2443140508
  C        -0.0986974087        0.0108938181       -0.0783748020
  C        -0.0031841772        0.0431568091        1.3389845051
  C         1.3558058809        0.0940837542        1.7043053000
  C         2.1337500022       -0.0360272524        0.5321385696
  C         1.2148717384       -0.0740918179       -0.5622353672
  H         1.5563655365       -0.1622528615       -1.6044880259
  H         3.2526263825        0.0488936964        0.5764345408
  H         1.9174000032        0.1424550208        2.6692605630
  H        -0.8083163577        0.0177661197        2.1006673009
  H        -0.9411927198       -0.0779658693       -0.7362883733
      10
 i =       62, time =       24.800, E =       -31.2439393956
  C        -0.0943067287        0.0069792439       -0.0754923666
  C         0.0004410673        0.0466055514        1.3354660595
  C         1.3566168148        0.0968813811        1.6950273389
  C         2.1272561715       -0.0306919305        0.5301614173
  C         1.2184100692       -0.0817580733       -0.5550225416
  H         1.5600553742       -0.1599403987       -1.6018103365
  H         3.2483143178        0.0407293916        0.5806933052
  H         1.9133912382        0.1422560117        2.6627404914
  H        -0.8075070178        0.0257125535        2.1061624691
  H        -0.9394265178       -0.0784847197       -0.7339274447
      10
 i =       64, time =       25.600, E =       -31.2436884461
  C        -0.0898706379        0.0025103508       -0.0726992282
  C         0.0032574042        0.0501128158        1.3328954690
  C         1.3580676805        0.0996702228        1.6867764489
  C         2.1215857209       -0.0251661815        0.5282354796
  C         1.2227144740       -0.0895011548       -0.5490345600
  H         1.5624781229       -0.1574430555       -1.5986983732
  H         3.2412709108        0.0314258539        0.5831432933
  H         1.9062980172        0.1420609352        2.6553147823
  H        -0.8059642323        0.0342743413        2.1093738215
  H        -0.9397852481       -0.0790087239       -0.7313505369
      10
 i =       66, time =       26.400, E =       -31.2436726927
  C        -0.0855207591       -0.0025937180       -0.0700833177
  C         0.0052141031        0.0536607831        1.3313293087
  C         1.3600707696        0.1024804155        1.6797601343
  C         2.1169385940       -0.0195254911        0.5263741293
  C         1.2276509936       -0.0972619933       -0.5443746243
  H         1.5636737361       -0.1548266189       -1.5950568983
  H         3.2317773044        0.0209965103        0.5837956369
  H         1.8964857513        0.1419157577        2.6471906284
  H        -0.8034227915        0.0434497622        2.1100154555
  H        -0.9418357562       -0.0795180705       -0.7283604255
      10
 i =       68, time =       27.200, E =       -31.2438543092
  C        -0.0813773970       -0.0084184576       -0.0677284199
  C         0.0063259322        0.0572310085        1.3307671992
  C         1.3624957820        0.1053451579        1.6740639541
  C         2.1134323390       -0.0138436394        0.5245861742
  C         1.2330376105       -0.1049763782       -0.5410800808
  H         1.5637523948       -0.1521713146       -1.5909706686
  H         3.2203992331        0.0094904109        0.5826994085
  H         1.8844932091        0.1418748003        2.6388225338
  H        -0.7998335990        0.0532284893        2.1080126513
  H        -0.9450837963       -0.0799927028       -0.7247101037
      10
 i =       70, time =       28.000, E =       -31.2440961148
  C        -0.0775433289       -0.0150410888       -0.0657083814
  C         0.0066666578        0.0608034048        1.3311526508
  C         1.3651813711        0.1082993348        1.6696650868
  C         2.1111050425       -0.0081857598        0.5228768861
  C         1.2386647994       -0.1125747840       -0.5391338069
  H         1.5628851839       -0.1495662963       -1.5866853105
  H         3.2079661172       -0.0030168522        0.5799407827
  H         1.8710105392        0.1419981328        2.6308963415
  H        -0.7953590285        0.0635924030        2.1035017104
  H        -0.9490349688       -0.0804192543       -0.7201402567
      10
 i =       72, time =       28.800, E =       -31.2442401331
  C        -0.0740971853       -0.0225182930       -0.0640744495
  C         0.0063620037        0.0643554148        1.3323755456
  C         1.3679500570        0.1113753540        1.6664565391
  C         2.1099237431       -0.0026043430        0.5212508601
  C         1.2443165991       -0.1199883814       -0.5384709391
  H         1.5612897171       -0.1471039081       -1.5825765579
  H         3.1955139156       -0.0164339493        0.5756398238
  H         1.8568243569        0.1423482884        2.6242774718
  H        -0.7903647195        0.0745188278        2.0968285754
  H        -0.9532523614       -0.0807968698       -0.7144168850
      10
 i =       74, time =       29.600, E =       -31.2442012454
  C        -0.0710879689       -0.0308750347       -0.0628464364
  C         0.0055796567        0.0678610014        1.3342747389
  C         1.3706231462        0.1145988093        1.6642825248
  C         2.1098002006        0.0028596301        0.5197138703
  C         1.2497855055       -0.1271532709       -0.5389871573
  H         1.5592135953       -0.1448742180       -1.5791084893
  H         3.1841889959       -0.0306651676        0.5699464165
  H         1.8427504271        0.1429861401        2.6199167083
  H        -0.7853982127        0.0859831467        2.0885375568
  H        -0.9573935785       -0.0811400047       -0.7073571872
      10
 i =       76, time =       30.400, E =       -31.2440381793
  C        -0.0685329747       -0.0400926546       -0.0620108202
  C         0.0045173157        0.0712900327        1.3366463399
  C         1.3730370868        0.1179877725        1.6629767129
  C         2.1106103194        0.0081729149        0.5182720689
  C         1.2548856675       -0.1340124597       -0.5405475925
  H         1.5569139761       -0.1429608883       -1.5767794943
  H         3.1751113388       -0.0456207245        0.5630326310
  H         1.8295296593        0.1439663743        2.6187149668
  H        -0.7811501066        0.0979665680        2.0793398741
  H        -0.9612364147       -0.0814791755       -0.6988508101
      10
 i =       78, time =       31.200, E =       -31.2439421966
  C        -0.0664192292       -0.0500978401       -0.0615234995
  C         0.0033860332        0.0746082671        1.3392587580
  C         1.3750616464        0.1215548461        1.6623965961
  C         2.1122177103        0.0133063314        0.5169291038
  C         1.2594624794       -0.1405168531       -0.5429970385
  H         1.5546352900       -0.1414406421       -1.5760593639
  H         3.1692196969       -0.0612211730        0.5550840818
  H         1.8177242924        0.1453340681        2.6213650214
  H        -0.7783857900        0.1104606857        2.0700488494
  H        -0.9646883736       -0.0818593605       -0.6888727693
      10
 i =       80, time =       32.000, E =       -31.2441391670
  C        -0.0647073537       -0.0607565589       -0.0613150307
  C         0.0023887068        0.0777785011        1.3418756326
  C         1.3766146872        0.1253085158        1.6624487356
  C         2.1144989341        0.0182319962        0.5156837680
  C         1.2633989643       -0.1466263412       -0.5461722827
  H         1.5525873013       -0.1403828289       -1.5773237621
  H         3.1671291856       -0.0773811868        0.5462920020
  H         1.8076474382        0.1471237630        2.6282013470
  H        -0.7778439188        0.1234681723        2.0614751752
  H        -0.9677822564       -0.0823367877       -0.6774887558
      10
 i =       82, time =       32.800, E =       -31.2447556607
  C        -0.0633367725       -0.0718770991       -0.0612976204
  C         0.0016955674        0.0807631867        1.3442837015
  C         1.3776691149        0.1292531853        1.6631007858
  C         2.1173639086        0.0229205453        0.5145289108
  C         1.2666193764       -0.1523105437       -0.5499151204
  H         1.5509257491       -0.1398510680       -1.5807933330