5
i =        0, time =        0.000, E =        -7.5473172209
C         -0.00000        0.00000       -0.00000
H          0.00000        0.00000        1.08900
H          1.02672       -0.00000       -0.36300
H         -0.51336       -0.88917       -0.36300
H         -0.51336        0.88917       -0.36300
5
i =        0, time =        0.000, E =        -7.5473172209
C          0.00000       -0.00000       -0.00000
H         -0.00000        0.00000        1.08900
H          1.02672       -0.00000       -0.36300
H         -0.51336       -0.88917       -0.36300
H         -0.51336        0.88917       -0.36300
5
i =        0, time =        0.000, E =        -7.5473172209
C          0.00000        0.00000       -0.00000
H          0.31437        0.54450        0.88916
H          0.94310       -0.54450        0.00000
H         -0.31437       -0.54450       -0.88916
H         -0.94310        0.54450       -0.00000
5
i =        0, time =        0.000, E =        -7.5473172209
C         -0.00000       -0.00000        0.00000
H         -0.00000       -0.00000        1.08900
H          1.02672        0.00000       -0.36300
H         -0.51336       -0.88916       -0.36300
H         -0.51336        0.88916       -0.36300
5
i =        0, time =        0.000, E =        -7.5473172209
C          0.00000        0.00000       -0.00000
H          0.00000        0.00000        1.08900
H          1.02672        0.00000       -0.36300
H         -0.51336       -0.88916       -0.36300
H         -0.51336        0.88916       -0.36300
5
i =        0, time =        0.000, E =        -7.5473172209
C          0.00000        0.00000       -0.00000
H          0.00000        0.00000        1.08900
H          1.02672        0.00000       -0.36300
H         -0.51336       -0.88916       -0.36300
H         -0.51336        0.88916       -0.36300
5
i =        2, time =        0.800, E =        -7.5504891018
C          0.00169       -0.00287       -0.00240
H          0.00156       -0.01985        1.10274
H          1.02668        0.01016       -0.36346
H         -0.50954       -0.88834       -0.37081
H         -0.52038        0.90090       -0.36608
5
i =        2, time =        0.800, E =        -7.5504891018
C          0.00938        0.00008       -0.00331
H         -0.00009       -0.01172        1.09895
H          1.02519        0.00827       -0.36158
H         -0.51338       -0.89579       -0.37660
H         -0.52111        0.89917       -0.35746
5
i =        2, time =        0.800, E =        -7.5504891018
C          0.00206       -0.00350       -0.00294
H          0.31847       -0.55677        0.88878
H          0.94625        0.55308        0.00741
H         -0.94728       -0.55133       -0.00594
H         -0.31950        0.55852       -0.88731
5
i =        2, time =        0.800, E =        -7.5504891018
C          0.00000       -0.00000        0.00000
H          0.00152       -0.01563        1.09595
H          1.03436        0.01226       -0.36237
H         -0.51638       -0.89191       -0.37311
H         -0.51950        0.89528       -0.36048
5
i =        2, time =        0.800, E =        -7.5504891018
C          0.00971        0.00181       -0.00234
H          0.00140       -0.01994        1.10272
H          1.02511        0.00798       -0.36173
H         -0.51218       -0.88860       -0.37256
H         -0.52404        0.89875       -0.36610
5
i =        2, time =        0.800, E =        -7.5504891018
C          0.00971        0.00181       -0.00234
H          0.00140       -0.01994        1.10272
H          1.02511        0.00798       -0.36173
H         -0.51218       -0.88860       -0.37256
H         -0.52404        0.89875       -0.36610
5
i =        4, time =        1.600, E =        -7.5561533990
C          0.00327       -0.00545       -0.00466
H          0.00649       -0.04459        1.11986
H          1.03304        0.02645       -0.36200
H         -0.51436       -0.89023       -0.37660
H         -0.52843        0.91381       -0.37661
5
i =        4, time =        1.600, E =        -7.5561533990
C          0.01870        0.00030       -0.00658
H         -0.00049       -0.02292        1.11328
H          1.02891        0.01636       -0.36197
H         -0.51569       -0.90611       -0.39109
H         -0.53143        0.91238       -0.35365
5
i =        4, time =        1.600, E =        -7.5561533990
C          0.00397       -0.00660       -0.00569
H          0.32397       -0.57068        0.89268
H          0.95346        0.56411        0.01460
H         -0.95544       -0.56080       -0.01176
H         -0.32595        0.57398       -0.88984
5
i =        4, time =        1.600, E =        -7.5561533990
C         -0.00000       -0.00000        0.00000
H          0.00656       -0.03653        1.10732
H          1.04744        0.03024       -0.35985
H         -0.52713       -0.89689       -0.38111
H         -0.52686        0.90318       -0.36636
5
i =        4, time =        1.600, E =        -7.5561533990
C          0.01939        0.00405       -0.00444
H          0.00606       -0.04483        1.11981
H          1.02980        0.02206       -0.35866
H         -0.51967       -0.89082       -0.38002
H         -0.53559        0.90955       -0.37670
5
i =        4, time =        1.600, E =        -7.5561533990
C          0.01939        0.00405       -0.00444
H          0.00606       -0.04483        1.11981
H          1.02980        0.02206       -0.35866
H         -0.51967       -0.89082       -0.38002
H         -0.53559        0.90955       -0.37670
5
i =        6, time =        2.400, E =        -7.5627337771
C          0.00460       -0.00751       -0.00655
H          0.01420       -0.07278        1.13823
H          1.04507        0.04845       -0.35839
H         -0.52715       -0.89471       -0.38022
H         -0.53672        0.92655       -0.39306
5
i =        6, time =        2.400, E =        -7.5627337771
C          0.02805        0.00066       -0.00984
H         -0.00176       -0.03336        1.13047
H          1.03772        0.02427       -0.36410
H         -0.51996       -0.91886       -0.40549
H         -0.54404        0.92729       -0.35104
5
i =        6, time =        2.400, E =        -7.5627337771
C          0.00552       -0.00901       -0.00793
H          0.33047       -0.58538        0.90006
H          0.96384        0.57668        0.02119
H         -0.96660       -0.57217       -0.01722
H         -0.33323        0.58989       -0.89610
5
i =        6, time =        2.400, E =        -7.5627337771
C         -0.00000        0.00000        0.00000
H          0.01472       -0.06172        1.12161
H          1.06444        0.05318       -0.35521
H         -0.54425       -0.90347       -0.38675
H         -0.53491        0.91201       -0.37965
5
i =        6, time =        2.400, E =        -7.5627337771
C          0.02920        0.00713       -0.00607
H          0.01311       -0.07342        1.13810
H          1.04030        0.04169       -0.35379
H         -0.53512       -0.89543       -0.38501
H         -0.54749        0.92003       -0.39324
5
i =        6, time =        2.400, E =        -7.5627337771
C          0.02920        0.00713       -0.00607
H          0.01311       -0.07342        1.13810
H          1.04030        0.04169       -0.35379
H         -0.53512       -0.89543       -0.38501
H         -0.54749        0.92003       -0.39324
5
i =        8, time =        3.200, E =        -7.5688222820
C          0.00558       -0.00896       -0.00796
H          0.02408       -0.10271        1.15569
H          1.06152        0.07535       -0.35239
H         -0.54672       -0.90125       -0.38148
H         -0.54447        0.93756       -0.41385
5
i =        8, time =        3.200, E =        -7.5688222820
C          0.03707        0.00113       -0.01297
H         -0.00433       -0.04268        1.14872
H          1.05119        0.03208       -0.36773
H         -0.52552       -0.93266       -0.41878
H         -0.55841        0.94213       -0.34924
5
i =        8, time =        3.200, E =        -7.5688222820
C          0.00660       -0.01060       -0.00950
H          0.33752       -0.59989        0.90989
H          0.97630        0.58976        0.02670
H         -0.97960       -0.58447       -0.02195
H         -0.34082        0.60519       -0.90514
5
i =        8, time =        3.200, E =        -7.5688222820
C          0.00000        0.00000        0.00000
H          0.02549       -0.08989        1.13711
H          1.08353        0.08004       -0.34829
H         -0.56603       -0.91079       -0.38965
H         -0.54299        0.92064       -0.39917
5
i =        8, time =        3.200, E =        -7.5688222820
C          0.03876        0.01098       -0.00712
H          0.02168       -0.10414        1.15544
H          1.05581        0.06613       -0.34715
H         -0.55716       -0.90155       -0.38702
H         -0.55909        0.92858       -0.41415
5
i =        8, time =        3.200, E =        -7.5688222820
C          0.03876        0.01098       -0.00712
H          0.02168       -0.10414        1.15544
H          1.05581        0.06613       -0.34715
H         -0.55716       -0.90155       -0.38702
H         -0.55909        0.92858       -0.41415
5
i =       10, time =        4.000, E =        -7.5736594268
C          0.01567        0.02941       -0.02163
H          0.02519       -0.13328        1.15281
H          1.10073        0.10413       -0.33991
H         -0.59036       -0.92719       -0.37304
H         -0.55123        0.92693       -0.41823
5
i =       10, time =        4.000, E =        -7.5736594268
C          0.04525        0.00169       -0.01577
H         -0.00853       -0.05056        1.16620
H          1.06852        0.03995       -0.37240
H         -0.53139       -0.94621       -0.43008
H         -0.57385        0.95514       -0.34795
5
i =       10, time =        4.000, E =        -7.5736594268
C          0.00718       -0.01139       -0.01035
H          0.34464       -0.61317        0.92100
H          0.98953        0.60239        0.03079
H         -0.99312       -0.59670       -0.02562
H         -0.34823        0.61887       -0.91582
5
i =       10, time =        4.000, E =        -7.5736594268
C          0.00000        0.00000       -0.00000
H          0.03821       -0.11954        1.15209
H          1.10276        0.10965       -0.33906
H         -0.59060       -0.91790       -0.38951
H         -0.55037        0.92779       -0.42353
5
i =       10, time =        4.000, E =        -7.5736594268
C          0.04746        0.01525       -0.00759
H          0.03097       -0.13539        1.16997
H          1.07507        0.09444       -0.33882
H         -0.58381       -0.90799       -0.38562
H         -0.56969        0.93369       -0.43794
5
i =       10, time =        4.000, E =        -7.5736594268
C          0.04746        0.01525       -0.00759
H          0.03097       -0.13539        1.16997
H          1.07507        0.09444       -0.33882
H         -0.58381       -0.90799       -0.38562
H         -0.56969        0.93369       -0.43794
5
i =       12, time =        4.800, E =        -7.5770889393
C          0.01832        0.03482       -0.02528
H          0.03701       -0.16538        1.16484
H          1.11919        0.13335       -0.32770
H         -0.61550       -0.93395       -0.36668
H         -0.55902        0.93117       -0.44517
5
i =       12, time =        4.800, E =        -7.5770889393
C          0.05216        0.00230       -0.01809
H         -0.01457       -0.05679        1.18122
H          1.08850        0.04809       -0.37745
H         -0.53648       -0.95834       -0.43875
H         -0.58961        0.96474       -0.34694
5
i =       12, time =        4.800, E =        -7.5770889393
C          0.00730       -0.01147       -0.01051
H          0.35134       -0.62430        0.93218
H          1.00218        0.61373        0.03332
H         -1.00583       -0.60799       -0.02807
H         -0.35499        0.63003       -0.92692
5
i =       12, time =        4.800, E =        -7.5770889393
C          0.00000       -0.00000        0.00000
H          0.05215       -0.14917        1.16501
H          1.12029        0.14077       -0.32762
H         -0.61608       -0.92386       -0.38620
H         -0.55637        0.93225       -0.45119
5
i =       12, time =        4.800, E =        -7.5770889393
C          0.05479        0.01955       -0.00755
H          0.04026       -0.16575        1.18030
H          1.09644        0.12550       -0.32893
H         -0.61279       -0.91351       -0.38061
H         -0.57869        0.93421       -0.46320
5
i =       12, time =        4.800, E =        -7.5770889393
C          0.05479        0.01955       -0.00755
H          0.04026       -0.16575        1.18030
H          1.09644        0.12550       -0.32893
H         -0.61279       -0.91351       -0.38061
H         -0.57869        0.93421       -0.46320
5
i =       14, time =        5.600, E =        -7.5794195784
C          0.02052        0.03943       -0.02836
H          0.04958       -0.19596        1.17270
H          1.13544        0.16246       -0.31301
H         -0.63953       -0.93782       -0.35718
H         -0.56600        0.93188       -0.47415
5
i =       14, time =        5.600, E =        -7.5794195784
C          0.05756        0.00294       -0.01982
H         -0.02249       -0.06132        1.19236
H          1.10962        0.05668       -0.38209
H         -0.53980       -0.96803       -0.44443
H         -0.60489        0.96973       -0.34602
5
i =       14, time =        5.600, E =        -7.5794195784
C          0.00699       -0.01092       -0.01006
H          0.35714       -0.63256        0.94222
H          1.01297        0.62303        0.03433
H         -1.01647       -0.61757       -0.02930
H         -0.36064        0.63802       -0.93719
5
i =       14, time =        5.600, E =        -7.5794195784
C          0.00000       -0.00000        0.00000
H          0.06661       -0.17750        1.17456
H          1.13452        0.17218       -0.31423
H         -0.64078       -0.92774       -0.37977
H         -0.56035        0.93306       -0.48056
5
i =       14, time =        5.600, E =        -7.5794195784
C          0.06045        0.02362       -0.00706
H          0.04893       -0.19419        1.18550
H          1.11801        0.15804       -0.31764
H         -0.64183       -0.91687       -0.37207
H         -0.58556        0.92939       -0.48873
5
i =       14, time =        5.600, E =        -7.5794195784
C          0.06045        0.02362       -0.00706
H          0.04893       -0.19419        1.18550
H          1.11801        0.15804       -0.31764
H         -0.64183       -0.91687       -0.37207
H         -0.58556        0.92939       -0.48873
5
i =       16, time =        6.400, E =        -7.5812059679
C          0.02228        0.04324       -0.03091
H          0.06234       -0.22404        1.17538
H          1.14833        0.19035       -0.29604
H         -0.66115       -0.93790       -0.34470
H         -0.57180        0.92835       -0.50373
5
i =       16, time =        6.400, E =        -7.5812059679
C          0.06140        0.00357       -0.02095
H         -0.03223       -0.06423        1.19850
H          1.13033        0.06574       -0.38560
H         -0.54064       -0.97440       -0.44701
H         -0.61886        0.96932       -0.34495
5
i =       16, time =        6.400, E =        -7.5812059679
C          0.00631       -0.00983       -0.00906
H          0.36164       -0.63752        0.95007
H          1.02089        0.62966        0.03394
H         -1.02404       -0.62475       -0.02942
H         -0.36479        0.64244       -0.94554
5
i =       16, time =        6.400, E =        -7.5812059679
C         -0.00000       -0.00000       -0.00000
H          0.08098       -0.20361        1.17978
H          1.14423        0.20275       -0.29921
H         -0.66349       -0.92870       -0.37040
H         -0.56172        0.92956       -0.51017
5
i =       16, time =        6.400, E =        -7.5812059679
C          0.06438        0.02733       -0.00617
H          0.05658       -0.22013        1.18507
H          1.13793        0.19079       -0.30514
H         -0.66903       -0.91692       -0.36027
H         -0.58987        0.91893       -0.51350
5
i =       16, time =        6.400, E =        -7.5812059679
C          0.06438        0.02733       -0.00617
H          0.05658       -0.22013        1.18507
H          1.13793        0.19079       -0.30514
H         -0.66903       -0.91692       -0.36027
H         -0.58987        0.91893       -0.51350
5
i =       18, time =        7.200, E =        -7.5830166354
C          0.02370        0.04634       -0.03303
H          0.07483       -0.24904        1.17228
H          1.15709        0.21604       -0.27703
H         -0.67958       -0.93350       -0.32952
H         -0.57604        0.92015       -0.53270
5
i =       18, time =        7.200, E =        -7.5830166354
C          0.06380        0.00417       -0.02151
H         -0.04357       -0.06572        1.19894
H          1.14923        0.07513       -0.38739
H         -0.53867       -0.97679       -0.44652
H         -0.63078        0.96321       -0.34352
5
i =       18, time =        7.200, E =        -7.5830166354
C          0.00529       -0.00824       -0.00757
H          0.36447       -0.63904        0.95486
H          1.02525        0.63308        0.03237
H         -1.02789       -0.62896       -0.02858
H         -0.36711        0.64316       -0.95107
5
i =       18, time =        7.200, E =        -7.5830166354
C         -0.00000       -0.00000        0.00000
H          0.09482       -0.22696        1.18005
H          1.14863        0.23150       -0.28294
H         -0.68344       -0.92602       -0.35835
H         -0.56002        0.92148       -0.53876
5
i =       18, time =        7.200, E =        -7.5830166354
C          0.06670        0.03070       -0.00492
H          0.06298       -0.24339        1.17888
H          1.15465        0.22251       -0.29164
H         -0.69307       -0.91276       -0.34558
H         -0.59126        0.90293       -0.53675
5
i =       18, time =        7.200, E =        -7.5830166354
C          0.06670        0.03070       -0.00492
H          0.06298       -0.24339        1.17888
H          1.15465        0.22251       -0.29164
H         -0.69307       -0.91276       -0.34558
H         -0.59126        0.90293       -0.53675
5
i =       20, time =        8.000, E =        -7.5852495308
C          0.02486        0.04889       -0.03483
H          0.08677       -0.27070        1.16322
H          1.16127        0.23884       -0.25628
H         -0.69451       -0.92423       -0.31200
H         -0.57840        0.90719       -0.56012
5
i =       20, time =        8.000, E =        -7.5852495308
C          0.06496        0.00472       -0.02158
H         -0.05624       -0.06603        1.19339
H          1.16523        0.08460       -0.38709
H         -0.53392       -0.97481       -0.44315
H         -0.64003        0.95152       -0.34157
5
i =       20, time =        8.000, E =        -7.5852495308
C          0.00399       -0.00623       -0.00570
H          0.36540       -0.63720        0.95608
H          1.02573        0.63293        0.02981
H         -1.02773       -0.62981       -0.02696
H         -0.36740        0.64031       -0.95323
5
i =       20, time =        8.000, E =        -7.5852495308
C         -0.00000        0.00000        0.00000
H          0.10785       -0.24735        1.17508
H          1.14743        0.25767       -0.26579
H         -0.70033       -0.91918       -0.34393
H         -0.55495        0.90886       -0.56537
5
i =       20, time =        8.000, E =        -7.5852495308
C          0.06766        0.03376       -0.00336
H          0.06804       -0.26402        1.16712
H          1.16703        0.25218       -0.27735
H         -0.71319       -0.90377       -0.32847
H         -0.58953        0.88185       -0.55795
5
i =       20, time =        8.000, E =        -7.5852495308
C          0.06766        0.03376       -0.00336
H          0.06804       -0.26402        1.16712
H          1.16703        0.25218       -0.27735
H         -0.71319       -0.90377       -0.32847
H         -0.58953        0.88185       -0.55795
5
i =       22, time =        8.800, E =        -7.5880081022
C          0.02584        0.05096       -0.03637
H          0.09796       -0.28905        1.14847
H          1.16085        0.25834       -0.23417
H         -0.70598       -0.91001       -0.29258
H         -0.57867        0.88976       -0.58534
5
i =       22, time =        8.800, E =        -7.5880081022
C          0.06513        0.00519       -0.02127
H         -0.06987       -0.06540        1.18203
H          1.17759        0.09383       -0.38451
H         -0.52664       -0.96841       -0.43724
H         -0.64622        0.93479       -0.33901
5
i =       22, time =        8.800, E =        -7.5880081022
C          0.00249       -0.00391       -0.00355
H          0.36435       -0.63228        0.95354
H          1.02239        0.62912        0.02652
H         -1.02363       -0.62717       -0.02474
H         -0.36559        0.63424       -0.95177
5
i =       22, time =        8.800, E =        -7.5880081022
C          0.00000        0.00000       -0.00000
H          0.11988       -0.26487        1.16501
H          1.14079        0.28075       -0.24813
H         -0.71423       -0.90797       -0.32751
H         -0.54644        0.89209       -0.58938
5
i =       22, time =        8.800, E =        -7.5880081022
C          0.06752        0.03654       -0.00158
H          0.07184       -0.28228        1.15034
H          1.17443        0.27901       -0.26246
H         -0.72911       -0.88973       -0.30947
H         -0.58468        0.85646       -0.57684
5
i =       22, time =        8.800, E =        -7.5880081022
C          0.06752        0.03654       -0.00158
H          0.07184       -0.28228        1.15034
H          1.17443        0.27901       -0.26246
H         -0.72911       -0.88973       -0.30947
H         -0.58468        0.85646       -0.57684
5
i =       24, time =        9.600, E =        -7.5910766862
C          0.02665        0.05257       -0.03768
H          0.10821       -0.30433        1.12871
H          1.15615        0.27447       -0.21120
H         -0.71427       -0.89121       -0.27180
H         -0.57674        0.86850       -0.60803
5
i =       24, time =        9.600, E =        -7.5910766862
C          0.06459        0.00558       -0.02068
H         -0.08401       -0.06407        1.16555
H          1.18595        0.10252       -0.37966
H         -0.51730       -0.95800       -0.42930
H         -0.64922        0.91397       -0.33591
5
i =       24, time =        9.600, E =        -7.5910766862
C          0.00092       -0.00145       -0.00131
H          0.36138       -0.62481        0.94747
H          1.01556        0.62193        0.02278
H         -1.01602       -0.62120       -0.02213
H         -0.36184        0.62554       -0.94682
5
i =       24, time =        9.600, E =        -7.5910766862
C         -0.00000        0.00000       -0.00000
H          0.13083       -0.27976        1.15035
H          1.12930        0.30049       -0.23036
H         -0.72538       -0.89256       -0.30957
H         -0.53475        0.87184       -0.61042
5
i =       24, time =        9.600, E =        -7.5910766862
C          0.06657        0.03896        0.00030
H          0.07457       -0.29849        1.12948
H          1.17665        0.30250       -0.24718
H         -0.74086       -0.87087       -0.28921
H         -0.57693        0.82790       -0.59340
5
i =       24, time =        9.600, E =        -7.5910766862
C          0.06657        0.03896        0.00030
H          0.07457       -0.29849        1.12948
H          1.17665        0.30250       -0.24718
H         -0.74086       -0.87087       -0.28921
H         -0.57693        0.82790       -0.59340
5
i =       26, time =       10.400, E =        -7.5939986057
C          0.02727        0.05367       -0.03870
H          0.11737       -0.31690        1.10502
H          1.14783        0.28744       -0.18799
H         -0.71979       -0.86864       -0.25029
H         -0.57269        0.84443       -0.62805
5
i =       26, time =       10.400, E =        -7.5939986057
C          0.06357        0.00590       -0.01991
H         -0.09815       -0.06224        1.14512
H          1.19023        0.11037       -0.37271
H         -0.50646       -0.94441       -0.42000
H         -0.64920        0.89039       -0.33250
5
i =       26, time =       10.400, E =        -7.5939986057
C         -0.00058        0.00092        0.00082
H          0.35675       -0.61544        0.93841
H          1.00588        0.61197        0.01895
H         -1.00559       -0.61243       -0.01936
H         -0.35646        0.61498       -0.93882
5
i =       26, time =       10.400, E =        -7.5939986057
C         -0.00000        0.00000       -0.00000
H          0.14066       -0.29242        1.13198
H          1.11397        0.31691       -0.21284
H         -0.73420       -0.87355       -0.29072
H         -0.52043        0.84906       -0.62842
5
i =       26, time =       10.400, E =        -7.5939986057
C          0.06508        0.04093        0.00210
H          0.07653       -0.31304        1.10591
H          1.17385        0.32238       -0.23172
H         -0.74866       -0.84786       -0.26843
H         -0.56680        0.79758       -0.60785
5
i =       26, time =       10.400, E =        -7.5939986057
C          0.06508        0.04093        0.00210
H          0.07653       -0.31304        1.10591
H          1.17385        0.32238       -0.23172
H         -0.74866       -0.84786       -0.26843
H         -0.56680        0.79758       -0.60785
5
i =       28, time =       11.200, E =        -7.5962449530
C          0.02769        0.05424       -0.03938
H          0.12526       -0.32721        1.07887
H          1.13685        0.29767       -0.16523
H         -0.72306       -0.84354       -0.22879
H         -0.56675        0.81885       -0.64546
5
i =       28, time =       11.200, E =        -7.5962449530
C          0.06236        0.00613       -0.01906
H         -0.11167       -0.06008        1.12236
H          1.19060        0.11712       -0.36401
H         -0.49475       -0.92887       -0.41012
H         -0.64653        0.86570       -0.32916
5
i =       28, time =       11.200, E =        -7.5962449530
C         -0.00185        0.00298        0.00264
H          0.35088       -0.60497        0.92722
H          0.99418        0.60017        0.01536
H         -0.99326       -0.60166       -0.01668
H         -0.34996        0.60348       -0.92854
5
i =       28, time =       11.200, E =        -7.5962449530
C         -0.00000        0.00000       -0.00000
H          0.14933       -0.30322        1.11112
H          1.09607        0.33026       -0.19597
H         -0.74111       -0.85193       -0.27167
H         -0.50429        0.82490       -0.64348
5
i =       28, time =       11.200, E =        -7.5962449530
C          0.06332        0.04231        0.00363
H          0.07808       -0.32631        1.08130
H          1.16652        0.33865       -0.21636
H         -0.75289       -0.82182       -0.24795
H         -0.55503        0.76718       -0.62063
5
i =       28, time =       11.200, E =        -7.5962449530
C          0.06332        0.04231        0.00363
H          0.07808       -0.32631        1.08130
H          1.16652        0.33865       -0.21636
H         -0.75289       -0.82182       -0.24795
H         -0.55503        0.76718       -0.62063
5
i =       30, time =       12.000, E =        -7.5974172083
C          0.02791        0.05428       -0.03972
H          0.13177       -0.33573        1.05192
H          1.12430        0.30575       -0.14363
H         -0.72465       -0.81744       -0.20806
H         -0.55932        0.79313       -0.66051
5
i =       30, time =       12.000, E =        -7.5974172083
C          0.06120        0.00632       -0.01825
H         -0.12396       -0.05763        1.09915
H          1.18741        0.12254       -0.35405
H         -0.48283       -0.91286       -0.40045
H         -0.64182        0.84163       -0.32639
5
i =       30, time =       12.000, E =        -7.5974172083
C         -0.00278        0.00453        0.00398
H          0.34429       -0.59418        0.91494
H          0.98143        0.58766        0.01233
H         -0.98004       -0.58993       -0.01432
H         -0.34290        0.59192       -0.91693
5
i =       30, time =       12.000, E =        -7.5974172083
C         -0.00000       -0.00000       -0.00000
H          0.15686       -0.31255        1.08923
H          1.07704        0.34097       -0.18009
H         -0.74654       -0.82902       -0.25320
H         -0.48736        0.80059       -0.65593
5
i =       30, time =       12.000, E =        -7.5974172083
C          0.06159        0.04305        0.00476
H          0.07964       -0.33863        1.05751
H          1.15534        0.35146       -0.20139
H         -0.75402       -0.79424       -0.22858
H         -0.54254        0.73836       -0.63231
5
i =       30, time =       12.000, E =        -7.5974172083
C          0.06159        0.04305        0.00476
H          0.07964       -0.33863        1.05751
H          1.15534        0.35146       -0.20139
H         -0.75402       -0.79424       -0.22858
H         -0.54254        0.73836       -0.63231
5
i =       32, time =       12.800, E =        -7.5973959169
C          0.02795        0.05391       -0.03977
H          0.13683       -0.34287        1.02591
H          1.11134        0.31235       -0.12377
H         -0.72516       -0.79200       -0.18883
H         -0.55096        0.76861       -0.67354
5
i =       32, time =       12.800, E =        -7.5973959169
C          0.06036        0.00646       -0.01755
H         -0.13447       -0.05489        1.07738
H          1.18122        0.12650       -0.34343