       5
 i =       24, time =        9.600, E =        -7.5910766862
  C         0.0262205473        0.0455944742       -0.0070621345
  H         0.0444124822       -0.3052598504        1.1360788812
  H         1.1469453003        0.2905625024       -0.2261583422
  H        -0.7717801208       -0.8803684452       -0.2717778263
  H        -0.6145801125        0.8256879606       -0.5807923743
