       5
 i =       36, time =       14.400, E =        -7.5947304453
  C         0.0235584866        0.0623172206        0.0005461223
  H         0.0801842231       -0.3562967238        1.0057342310
  H         1.0948125257        0.3548016522       -0.1050748038
  H        -0.7698340573       -0.7171940054       -0.1577689385
  H        -0.5653243227        0.6834816897       -0.6531697500
