       5
 i =       38, time =       15.200, E =        -7.5929465238
  C         0.0242417388        0.0638592247        0.0023183627
  H         0.0842157522       -0.3627440755        0.9966829478
  H         1.0799479095        0.3591729874       -0.0898163530
  H        -0.7652319805       -0.6975846978       -0.1444044520
  H        -0.5603362575        0.6756142306       -0.6666740457
