       5
 i =       50, time =       20.000, E =        -7.5916503258
  C         0.0293774529        0.0750474037        0.0140757787
  H         0.0927150474       -0.3990230785        1.0336838027
  H         1.0562393086        0.3832815925       -0.0464035402
  H        -0.7714803708       -0.6856342321       -0.1118263081
  H        -0.5505158167        0.6943890351       -0.7435450780
