       5
 i =       62, time =       24.800, E =        -7.5940626457
  C         0.0224954804        0.0856612233        0.0335760662
  H         0.0699976075       -0.3825344478        1.0963926279
  H         1.1162487773        0.3997607120       -0.0638631229
  H        -0.7804398770       -0.7595108187       -0.1314754211
  H        -0.5216526696        0.7327005561       -0.7385052683
