       5
 i =       64, time =       25.600, E =        -7.5947696495
  C         0.0208434097        0.0864803044        0.0383308227
  H         0.0638414112       -0.3714286150        1.1009195988
  H         1.1205622956        0.3980606808       -0.0693262539
  H        -0.7739470204       -0.7695396631       -0.1369086439
  H        -0.5134961588        0.7374708101       -0.7278905092
