       5
 i =       74, time =       29.600, E =        -7.5989312087
  C         0.0153666987        0.0849251554        0.0675913403
  H         0.0309091127       -0.2924488635        1.1107693567
  H         1.1025800196        0.3674589846       -0.0949758482
  H        -0.7054458406       -0.7953787034       -0.1672390255
  H        -0.4724792156        0.7628577152       -0.6557489042
