       5
 i =       88, time =       35.200, E =        -7.5977390661
  C         0.0150322348        0.0697618042        0.1061901184
  H         0.0043245734       -0.1974804268        1.1895897913
  H         1.0631686058        0.3128152181       -0.1044072023
  H        -0.6068726291       -0.7963720912       -0.2157511958
  H        -0.4530690726        0.8275783659       -0.5861959874
