       5
 i =       10, time =        4.000, E =        -7.5736594268
  C         0.0198936128        0.0124608821       -0.0070331406
  H        -0.0000633229       -0.1486467132        1.1725547778
  H         1.0489714629        0.0889692027       -0.3342078468
  H        -0.6048104529       -0.9223847685       -0.3675271144
  H        -0.5901067552        0.9348394790       -0.4296403175
