       5
 i =       12, time =        4.800, E =        -7.5770889393
  C         0.0226615509        0.0169076289       -0.0077438990
  H         0.0045676858       -0.1800845806        1.1837865375
  H         1.0661542349        0.1194734457       -0.3240634329
  H        -0.6375812179       -0.9291072947       -0.3613710995
  H        -0.6023869443        0.9346193013       -0.4542387527
