       5
 i =        0, time =        0.000, E =        -7.5473172209
  C         0.0000000000        0.0000000000        0.0000000000
  H         0.0000000000        0.0000000000        1.0890000000
  H         1.0267200000        0.0000000000       -0.3629960000
  H        -0.5133600000       -0.8891650000       -0.3630000000
  H        -0.5133600000        0.8891650000       -0.3630000000
       5
 i =        2, time =        0.800, E =        -7.5504891018
  C         0.0045397956        0.0013447861       -0.0017825343
  H        -0.0046195302       -0.0229738588        1.1028123885
  H         1.0202548706        0.0069560202       -0.3602830306
  H        -0.5158442954       -0.8917051555       -0.3677777000
  H        -0.5279696132        0.9001571690       -0.3639774710
       5
 i =        4, time =        1.600, E =        -7.5561533990
  C         0.0086971147        0.0029880117       -0.0033928035
  H        -0.0062834972       -0.0507940999        1.1201910411
  H         1.0197107615        0.0199213691       -0.3559170103
  H        -0.5273999901       -0.8970675213       -0.3708165766
  H        -0.5437344642        0.9118319150       -0.3725559194
       5
 i =        6, time =        2.400, E =        -7.5627337771
  C         0.0127184586        0.0053552634       -0.0048288361
  H        -0.0057781880       -0.0822229965        1.1390325639
  H         1.0247014699        0.0383173629       -0.3500660988
  H        -0.5472786199       -0.9048300608       -0.3719825130
  H        -0.5599597382        0.9224379656       -0.3873343102
       5
 i =        8, time =        3.200, E =        -7.5688222820
  C         0.0165221919        0.0085487625       -0.0060554142
  H        -0.0035956140       -0.1154804025        1.1571372898
  H         1.0347345512        0.0615750029       -0.3428356901
  H        -0.5738413816       -0.9137855920       -0.3709891376
  H        -0.5757171281        0.9304947064       -0.4068539899
       5
 i =       10, time =        4.000, E =        -7.5736594268
  C         0.0198936128        0.0124608821       -0.0070331406
  H        -0.0000633229       -0.1486467132        1.1725547778
  H         1.0489714629        0.0889692027       -0.3342078468
  H        -0.6048104529       -0.9223847685       -0.3675271144
  H        -0.5901067552        0.9348394790       -0.4296403175
       5
 i =       12, time =        4.800, E =        -7.5770889393
  C         0.0226615509        0.0169076289       -0.0077438990
  H         0.0045676858       -0.1800845806        1.1837865375
  H         1.0661542349        0.1194734457       -0.3240634329
  H        -0.6375812179       -0.9291072947       -0.3613710995
  H        -0.6023869443        0.9346193013       -0.4542387527
       5
 i =       14, time =        5.600, E =        -7.5794195784
  C         0.0247405818        0.0216967208       -0.0081918536
  H         0.0100835923       -0.2087163969        1.1898419890
  H         1.0847102085        0.1517416821       -0.3122356026
  H        -0.6696431728       -0.9326744520       -0.3524252016
  H        -0.6120139227        0.9292578394       -0.4792898481
       5
 i =       16, time =        6.400, E =        -7.5812059679
  C         0.0261265543        0.0266560628       -0.0083915929
  H         0.0162891390       -0.2340670770        1.1901791196
  H         1.1029612579        0.1842265557       -0.2985775601
  H        -0.6989817097       -0.9321269966       -0.3407358977
  H        -0.6186472755        0.9184410078       -0.5036316098
       5
 i =       18, time =        7.200, E =        -7.5830166354
  C         0.0268714358        0.0316423731       -0.0083638619
  H         0.0229994467       -0.2561248937        1.1846360220
  H         1.1193604586        0.2153965791       -0.2830185549
  H        -0.7242763210       -0.9268239822       -0.3264781521
  H        -0.6221268857        0.9021327400       -0.5263696083
       5
 i =       20, time =        8.000, E =        -7.5852495308
  C         0.0270620364        0.0365325098       -0.0081254574
  H         0.0300368122       -0.2751258965        1.1733756898
  H         1.1326666234        0.2439864652       -0.2656101621
  H        -0.7448798485       -0.9164143686       -0.3099481162
  H        -0.6224633914        0.8806472765       -0.5469279652
       5
 i =       22, time =        8.800, E =        -7.5880081022
  C         0.0268048534        0.0412171080       -0.0076892720
  H         0.0372293732       -0.2913950775        1.1568985999
  H         1.1420215293        0.2691624201       -0.2465453174
  H        -0.7606534608       -0.9008393342       -0.2915485751
  H        -0.6198316579        0.8547425213       -0.5650523229
       5
 i =       24, time =        9.600, E =        -7.5910766862
  C         0.0262205473        0.0455944742       -0.0070621345
  H         0.0444124822       -0.3052598504        1.1360788812
  H         1.1469453003        0.2905625024       -0.2261583422
  H        -0.7717801208       -0.8803684452       -0.2717778263
  H        -0.6145801125        0.8256879606       -0.5807923743
       5
 i =       26, time =       10.400, E =        -7.5939986057
  C         0.0254427656        0.0495726038       -0.0062461497
  H         0.0514327073       -0.3170323899        1.1121915159
  H         1.1472926789        0.3082259782       -0.2049060176
  H        -0.7786266509       -0.8556618884       -0.2512125762
  H        -0.6072372756        0.7952194682       -0.5944659162
       5
 i =       28, time =       11.200, E =        -7.5962449530
  C         0.0246165833        0.0530777567       -0.0052404865
  H         0.0581536004       -0.3270241184        1.0868639750
  H         1.1432092850        0.3224668163       -0.1833312481
  H        -0.7816818670       -0.8278118259       -0.2304791106
  H        -0.5984992514        0.7653401054       -0.6066065111
       5
 i =       30, time =       12.000, E =        -7.5974172083
  C         0.0238917799        0.0560694262       -0.0040459334
  H         0.0644620629       -0.3355703124        1.0619233038
  H         1.1351085574        0.3337418294       -0.1620187034
  H        -0.7815459539       -0.7983076748       -0.2102128126
  H        -0.5891767810        0.7379895722       -0.6178901885
       5
 i =       32, time =       12.800, E =        -7.5973959169
  C         0.0234086843        0.0585550792       -0.0026694908
  H         0.0702726016       -0.3430409440        1.0391586243
  H         1.1236704356        0.3425570321       -0.1415429990
  H        -0.7789429432       -0.7688957183       -0.1910120928
  H        -0.5800977109        0.7147086196       -0.6290320989
       5
 i =       34, time =       13.600, E =        -7.5963674257
  C         0.0232778673        0.0605989092       -0.0011289723
  H         0.0755263343       -0.3498265484        1.0200766624
  H         1.1098417503        0.3494160411       -0.1224207349
  H        -0.7747239219       -0.7413445977       -0.1733955545
  H        -0.5719815458        0.6964374356       -0.6406564491
       5
 i =       36, time =       14.400, E =        -7.5947304453
  C         0.0235584866        0.0623172206        0.0005461223
  H         0.0801842231       -0.3562967238        1.0057342310
  H         1.0948125257        0.3548016522       -0.1050748038
  H        -0.7698340573       -0.7171940054       -0.1577689385
  H        -0.5653243227        0.6834816897       -0.6531697500
       5
 i =       38, time =       15.200, E =        -7.5929465238
  C         0.0242417388        0.0638592247        0.0023183627
  H         0.0842157522       -0.3627440755        0.9966829478
  H         1.0799479095        0.3591729874       -0.0898163530
  H        -0.7652319805       -0.6975846978       -0.1444044520
  H        -0.5603362575        0.6756142306       -0.6666740457
       5
 i =       40, time =       16.000, E =        -7.5914194973
  C         0.0252455284        0.0653766123        0.0041512143
  H         0.0875870951       -0.3693296512        0.9929946385
  H         1.0666614132        0.3629619009       -0.0768417149
  H        -0.7617695800       -0.6831905434       -0.1334374756
  H        -0.5569447361        0.6722385825       -0.6809515911
       5
 i =       42, time =       16.800, E =        -7.5904208453
  C         0.0264247501        0.0669919833        0.0060195604
  H         0.0902531183       -0.3760484660        0.9943298186
  H         1.0562468551        0.3665556944       -0.0662394256
  H        -0.7600660462       -0.6742384264       -0.1248777055
  H        -0.5548535087        0.6725561096       -0.6955172725
       5
 i =       44, time =       17.600, E =        -7.5900593017
  C         0.0275960807        0.0687764176        0.0079181557
  H         0.0921571285       -0.3827273508        1.0000213770
  H         1.0497017595        0.3702649755       -0.0580039896
  H        -0.7604119214       -0.6705722705       -0.1186303037
  H        -0.5536306516        0.6757049762       -0.7097226237
       5
 i =       46, time =       18.400, E =        -7.5902791682
  C         0.0285726529        0.0707430655        0.0098650079
  H         0.0932371393       -0.3890542408        1.0091689078
  H         1.0475827577        0.3742838723       -0.0520535023
  H        -0.7627353112       -0.6717310720       -0.1145232377
  H        -0.5527960115        0.6808591216       -0.7228735656
       5
 i =       48, time =       19.200, E =        -7.5908928505
  C         0.0291991888        0.0728559070        0.0118993003
  H         0.0934366712       -0.3946294491        1.0207416082
  H         1.0499243528        0.3786589937       -0.0482475846
  H        -0.7666372904       -0.6770288911       -0.1123362026
  H        -0.5518897302        0.6872887762       -0.7343259435
       5
 i =       50, time =       20.000, E =        -7.5916503258
  C         0.0293774529        0.0750474037        0.0140757787
  H         0.0927150474       -0.3990230785        1.0336838027
  H         1.0562393086        0.3832815925       -0.0464035402
  H        -0.7714803708       -0.6856342321       -0.1118263081
  H        -0.5505158167        0.6943890351       -0.7435450780
       5
 i =       52, time =       20.800, E =        -7.5923290394
  C         0.0290754393        0.0772368920        0.0164578418
  H         0.0910553909       -0.4018251892        1.0470090346
  H         1.0656050219        0.3879113781       -0.0463096804
  H        -0.7765029553       -0.6966476467       -0.1127481412
  H        -0.5483644505        0.7016865250       -0.7501301349
       5
 i =       54, time =       21.600, E =        -7.5928093239
  C         0.0283210687        0.0793441158        0.0191114056
  H         0.0884681159       -0.4026815198        1.0598706330
  H         1.0768185750        0.3922236390       -0.0477365221
  H        -0.7809281619       -0.7091740425       -0.1148688236
  H        -0.5452202658        0.7088332744       -0.7538156914
       5
 i =       56, time =       22.400, E =        -7.5931006651
  C         0.0271859460        0.0812966738        0.0220997617
  H         0.0849919347       -0.4013168331        1.0716048728
  H         1.0885846903        0.3958656529       -0.0504451959
  H        -0.7840479826       -0.7223817704       -0.1179762050
  H        -0.5409627486        0.7155954688       -0.7544632205
       5
 i =       58, time =       23.200, E =        -7.5933128708
  C         0.0257665961        0.0830327981        0.0254792397
  H         0.0806919151       -0.3975460626        1.0817483226
  H         1.0996939733        0.3985063065       -0.0541942630
  H        -0.7852755460       -0.7355461823       -0.1218832731
  H        -0.5355630844        0.7218410546       -0.7520498228
       5
 i =       60, time =       24.000, E =        -7.5935933961
  C         0.0241684987        0.0845013694        0.0292949290
  H         0.0756571494       -0.3912809021        1.0900362343
  H         1.1091527877        0.3998709251       -0.0587445384
  H        -0.7841693890       -0.7480736894       -0.1264286781
  H        -0.5290796381        0.7275289629       -0.7466636389
       5
 i =       62, time =       24.800, E =        -7.5940626457
  C         0.0224954804        0.0856612233        0.0335760662
  H         0.0699976075       -0.3825344478        1.0963926279
  H         1.1162487773        0.3997607120       -0.0638631229
  H        -0.7804398770       -0.7595108187       -0.1314754211
  H        -0.5216526696        0.7327005561       -0.7385052683
       5
 i =       64, time =       25.600, E =        -7.5947696495
  C         0.0208434097        0.0864803044        0.0383308227
  H         0.0638414112       -0.3714286150        1.1009195988
  H         1.1205622956        0.3980606808       -0.0693262539
  H        -0.7739470204       -0.7695396631       -0.1369086439
  H        -0.5134961588        0.7374708101       -0.7278905092
       5
 i =       66, time =       26.400, E =        -7.5956788556
  C         0.0192972424        0.0869351716        0.0435415432
  H         0.0573313728       -0.3581993941        1.1038881125
  H         1.1219424612        0.3947400169       -0.0749223463
  H        -0.7646985944       -0.7779653332       -0.1426342939
  H        -0.5048866726        0.7420189221       -0.7152480138
       5
 i =       68, time =       27.200, E =        -7.5966841811
  C         0.0179290187        0.0870110335        0.0491612213
  H         0.0506217701       -0.3431971536        1.1057288176
  H         1.1204715239        0.3898502054       -0.0804540874
  H        -0.7528497008       -0.7847034690       -0.1485773343
  H        -0.4961454057        0.7465740492       -0.7011058891
       5
 i =       70, time =       28.000, E =        -7.5976432888
  C         0.0167958048        0.0867012579        0.0551130851
  H         0.0438738713       -0.3268765856        1.1070173518
  H         1.1164309522        0.3835224365       -0.0857419086
  H        -0.7387030532       -0.7897690179       -0.1546813770
  H        -0.4876146150        0.7513956362       -0.6860632296
       5
 i =       72, time =       28.800, E =        -7.5984207900
  C         0.0159366625        0.0860056256        0.0612950451
  H         0.0372503366       -0.3097710293        1.1084455271
  H         1.1102707290        0.3759650932       -0.0906271666
  H        -0.7227073150       -0.7932662519       -0.1609083292
  H        -0.4796282122        0.7567462924       -0.6707454979
       5
 i =       74, time =       29.600, E =        -7.5989312087
  C         0.0153666987        0.0849251554        0.0675913403
  H         0.0309091127       -0.2924488635        1.1107693567
  H         1.1025800196        0.3674589846       -0.0949758482
  H        -0.7054458406       -0.7953787034       -0.1672390255
  H        -0.4724792156        0.7628577152       -0.6557489042
       5
 i =       76, time =       30.400, E =        -7.5991578179
  C         0.0150630139        0.0834553352        0.0738883440
  H         0.0249971772       -0.2754581886        1.1147333061
  H         1.0940530161        0.3583477172       -0.0986809248
  H        -0.6876051010       -0.7963586812       -0.1736726680
  H        -0.4663922981        0.7698939029       -0.6415842369
       5
 i =       78, time =       31.200, E =        -7.5991272852
  C         0.0149384224        0.0815975824        0.0800715021
  H         0.0196448206       -0.2592685475        1.1209725786
  H         1.0854416421        0.3490229159       -0.1016634703
  H        -0.6699278548       -0.7965119605       -0.1802266334
  H        -0.4615009312        0.7779199381       -0.6286402273
       5
 i =       80, time =       32.000, E =        -7.5988823769
  C         0.0148673604        0.0794179827        0.0859776300
  H         0.0149608043       -0.2442203946        1.1299073488
  H         1.0774888403        0.3398983266       -0.1038712379
  H        -0.6531575483       -0.7961786818       -0.1869334172
  H        -0.4578380463        0.7868846574       -0.6171649083
       5
 i =       82, time =       32.800, E =        -7.5985482854
  C         0.0148229838        0.0770517765        0.0914633481
  H         0.0110309378       -0.2305082809        1.1416508214
  H         1.0708532271        0.3313757975       -0.1052730367
  H        -0.6379800922       -0.7957098481       -0.1938292138
  H        -0.4553417552        0.7966251200       -0.6072636891
       5
 i =       84, time =       33.600, E =        -7.5982404264
  C         0.0148498884        0.0746108471        0.0965737535
  H         0.0079210858       -0.2181938225        1.1559547602
  H         1.0660567150        0.3238213924       -0.1058467594
  H        -0.6249660952       -0.7954328030       -0.2009370613
  H        -0.4538663781        0.8068834265       -0.5989048934
       5
 i =       86, time =       34.400, E =        -7.5979749817
  C         0.0149350647        0.0721647150        0.1014432097
  H         0.0056773080       -0.2072256777        1.1722208821
  H         1.0634477556        0.3175519300       -0.1055692415
  H        -0.6145217995       -0.7956039408       -0.2082565456
  H        -0.4531967530        0.8173274168       -0.5919521430
       5
 i =       88, time =       35.200, E =        -7.5977390661
  C         0.0150322348        0.0697618042        0.1061901184
  H         0.0043245734       -0.1974804268        1.1895897913
  H         1.0631686058        0.3128152181       -0.1044072023
  H        -0.6068726291       -0.7963720912       -0.2157511958
  H        -0.4530690726        0.8275783659       -0.5861959874
       5
 i =       90, time =       36.000, E =        -7.5975215888
  C         0.0151000288        0.0674342874        0.1109115821
  H         0.0038665191       -0.1888033984        1.2070731330
  H         1.0651439275        0.3097811821       -0.1023123947
  H        -0.6020659245       -0.7977555849       -0.2233415580
  H        -0.4531916114        0.8372461560       -0.5813872393
       5
 i =       92, time =       36.800, E =        -7.5973195088
  C         0.0151142477        0.0652004383        0.1156818652
  H         0.0042853689       -0.1810427529        1.2236977490
  H         1.0690936820        0.3085387572       -0.0992204408
  H        -0.5999911057       -0.7996399701       -0.2308994430
  H        -0.4532634778        0.8459591932       -0.5772602698
       5
 i =       94, time =       37.600, E =        -7.5971403607
  C         0.0150687950        0.0630644910        0.1205503020
  H         0.0055424486       -0.1740658863        1.2386166739
  H         1.0745713700        0.3091050660       -0.0950574572
  H        -0.6004070661       -0.8017916790       -0.2382540923
  H        -0.4529895450        0.8533921123       -0.5735585344
       5
 i =       96, time =       38.400, E =        -7.5970037182
  C         0.0149732636        0.0610207621        0.1255386538
  H         0.0075797756       -0.1677717321        1.2511859865
  H         1.0810182979        0.3114350898       -0.0897489613
  H        -0.6029771738       -0.8038894222       -0.2452022721
  H        -0.4520915299        0.8592794091       -0.5700494264
       5
 i =       98, time =       39.200, E =        -7.5969388611
  C         0.0148479990        0.0590562203        0.1306442430
  H         0.0103220742       -0.1620905245        1.2609925021
  H         1.0878276519        0.3154376153       -0.0832331670
  H        -0.6073025251       -0.8055615529       -0.2515253253
  H        -0.4503152274        0.8634278765       -0.5665402329
       5
 i =      100, time =       40.000, E =        -7.5969782052
  C         0.0147200039        0.0571566239        0.1358426914
  H         0.0136799027       -0.1569853823        1.2678531721
  H         1.0944042614        0.3209861845       -0.0754712576
  H        -0.6129566390       -0.8064280843       -0.2570044238
  H        -0.4474359975        0.8657206377       -0.5628835080
       5
 i =      102, time =       40.800, E =        -7.5971466220
  C         0.0146186577        0.0553102597        0.1410928713
  H         0.0175523551       -0.1524469682        1.2717938516
  H         1.1002147613        0.3279316406       -0.0664578336
  H        -0.6195140915       -0.8061359815       -0.2614371841
  H        -0.4432626860        0.8661214441       -0.5589858425
       5
 i =      104, time =       41.600, E =        -7.5974494809
  C         0.0145725316        0.0535127525        0.1463385054
  H         0.0218311762       -0.1484916936        1.2730290332
  H         1.1048218352        0.3361100050       -0.0562260484
  H        -0.6265761015       -0.8043893812       -0.2646496237
  H        -0.4376417311        0.8646759666       -0.5548103348
       5
 i =      106, time =       42.400, E =        -7.5978644472
  C         0.0146067945        0.0517675211        0.1515099458
  H         0.0264036488       -0.1451558817        1.2719404527
  H         1.1079040717        0.3453508284       -0.0448519179
  H        -0.6337893800       -0.8009699966       -0.2665065709
  H        -0.4304625180        0.8615161042       -0.5503825580
       5
 i =      108, time =       43.200, E =        -7.5983422165
  C         0.0147415431        0.0500843147        0.1565244017
  H         0.0311578585       -0.1424939854        1.2690586910
  H         1.1092628107        0.3554809063       -0.0324515297
  H        -0.6408608515       -0.7957531627       -0.2669166665
  H        -0.4216635163        0.8568609032       -0.5457889937
       5
 i =      110, time =       44.000, E =        -7.5988166245
  C         0.0149914481        0.0484716738        0.1612940219
  H         0.0359859540       -0.1405700130        1.2650348956
  H         1.1088215009        0.3663301787       -0.0191776438
  H        -0.6475660304       -0.7887171637       -0.2658385085
  H        -0.4112397617        0.8510200189       -0.5411801260
       5
 i =      112, time =       44.800, E =        -7.5992207188
  C         0.0153661231        0.0469323418        0.1657374312
  H         0.0407890677       -0.1394531748        1.2606026275
  H         1.1066188882        0.3777340322       -0.0052120361
  H        -0.6537557891       -0.7799522678       -0.2632829295
  H        -0.3992493770        0.8443887370       -0.5367627579
       5
 i =      114, time =       45.600, E =        -7.5995028899
  C         0.0158717811        0.0454612040        0.1697969328
  H         0.0454787528       -0.1392061848        1.2565191235
  H         1.1027988886        0.3895355272        0.0092424031
  H        -0.6593599736       -0.7696651971       -0.2593177053
  H        -0.3858179741        0.8374384945       -0.5327936597
       5
 i =      116, time =       46.400, E =        -7.5996372484
  C         0.0165124408        0.0440493571        0.1734499364
  H         0.0499787839       -0.1398738756        1.2534941654
  H         1.0975991850        0.4015874421        0.0239738751
  H        -0.6643865488       -0.7581784025       -0.2540689283
  H        -0.3711360000        0.8306965292       -0.5295617979
       5
 i =      118, time =       47.200, E =        -7.5996270832
  C         0.0172924563        0.0426896277        0.1767148486
  H         0.0542215398       -0.1414680894        1.2521127882
  H         1.0913338506        0.4137515304        0.0387717287
  H        -0.6689197681       -0.7459191658       -0.2477220419
  H        -0.3554524905        0.8247156084       -0.5273673332
       5
 i =      120, time =       48.000, E =        -7.5995002553
  C         0.0182167777        0.0413815621        0.1796491604
  H         0.0581456423       -0.1439564610        1.2527704709
  H         1.0843738186        0.4258954316        0.0534373425
  H        -0.6731097647       -0.7333965663       -0.2405165748
  H        -0.3390555015        0.8200299861       -0.5264883555
       5
 i =      122, time =       48.800, E =        -7.5992981508
  C         0.0192888834        0.0401336265        0.1823434643
  H         0.0616928798       -0.1472533167        1.2556310275
  H         1.0771245784        0.4378937475        0.0677928868
  H        -0.6771529676       -0.7211682476       -0.2327356037
  H        -0.3222441028        0.8171061185       -0.5271421690
       5
 i =      124, time =       49.600, E =        -7.5990614294
  C         0.0205088668        0.0389655214        0.1849104268
  H         0.0648060586       -0.1512197094        1.2606174225
  H         1.0699991592        0.4496242760        0.0816872713
  H        -0.6812679750       -0.7097919065       -0.2246870664
  H        -0.3052999689        0.8162908435       -0.5294432917
       5
 i =      126, time =       50.400, E =        -7.5988176625
  C         0.0218691714        0.0379075419        0.1874702847
  H         0.0674301495       -0.1556685755        1.2674347457
  H         1.0633920665        0.4609681219        0.0949986393
  H        -0.6856588095       -0.6997710627       -0.2166792287
  H        -0.2884600580        0.8177704278       -0.5333682200
       5
 i =      128, time =       51.200, E =        -7.5985730152
  C         0.0233523607        0.0369991061        0.1901345702
  H         0.0695144081       -0.1603783994        1.2756214790
  H         1.0576536200        0.4718054595        0.1076354586
  H        -0.6904776053       -0.6915038321       -0.2089926401
  H        -0.2719039755        0.8215452459       -0.5387355412
       5
 i =      130, time =       52.000, E =        -7.5983127834
  C         0.0249287364        0.0362837719        0.1929923248
  H         0.0710168189       -0.1651084647        1.2846161695
  H         1.0530698336        0.4820149157        0.1195348612
  H        -0.6957851112       -0.6852437157       -0.2018558361
  H        -0.2557541035        0.8274293076       -0.5452083086
       5
 i =      132, time =       52.800, E =        -7.5980100435
  C         0.0265570694        0.0358040603        0.1961006036
  H         0.0719080289       -0.1696165532        1.2938283204
  H         1.0498477660        0.4914710723        0.1306595833
  H        -0.7015253597       -0.6810786544       -0.1954291642
  H        -0.2400855657        0.8350719337       -0.5523193313
       5
 i =      134, time =       53.600, E =        -7.5976395581
  C         0.0281867356        0.0355959226        0.1994810245
  H         0.0721746621       -0.1736735472        1.3027012972
  H         1.0481087595        0.5000422267        0.1409929968
  H        -0.7075154876       -0.6789318262       -0.1897974550
  H        -0.2249420550        0.8439994949       -0.5595144493
       5
 i =      136, time =       54.400, E =        -7.5971935767
  C         0.0297624054        0.0356855650        0.2031216064
  H         0.0718208832       -0.1770755513        1.3107612347
  H         1.0478885152        0.5075876386        0.1505351944
  H        -0.7134592005       -0.6785825333       -0.1849743704
  H        -0.2103527904        0.8536673291       -0.5662039826
       5
 i =      138, time =       55.200, E =        -7.5966914262
  C         0.0312293245        0.0360881285        0.2069825756
  H         0.0708683482       -0.1796510946        1.3176477835
  H         1.0491436638        0.5139599869        0.1592993379
  H        -0.7189770652       -0.6797013763       -0.1809166501
  H        -0.1963440953        0.8635125719       -0.5718125105
       5
 i =      140, time =       56.000, E =        -7.5961808158
  C         0.0325389580        0.0368092585        0.2110039163
  H         0.0693549134       -0.1812660094        1.3231293085
  H         1.0517632344        0.5190075003        0.1673082974
  H        -0.7236498320       -0.6818930146       -0.1775428723
  H        -0.1829493346        0.8729999235       -0.5758180708
       5
 i =      142, time =       56.800, E =        -7.5957300137
  C         0.0336536178        0.0378471215        0.2151136475
  H         0.0673320406       -0.1818245225        1.3271057934
  H         1.0555838821        0.5225783366        0.1745924047
  H        -0.7270626931       -0.6847391552       -0.1747535953
  H        -0.1702123066        0.8816596893       -0.5777788767
       5
 i =      144, time =       57.600, E =        -7.5954128476
  C         0.0345497193        0.0391951482        0.2192349534
  H         0.0648620269       -0.1812696543        1.3296037929
  H         1.0604069892        0.5245258319        0.1811894183
  H        -0.7288448426       -0.6878366558       -0.1724487886
  H        -0.1581867644        0.8891122295       -0.5773482082
       5
 i =      146, time =       58.400, E =        -7.5952917368
  C         0.0352190264        0.0408433793        0.2232927104
  H         0.0620148661       -0.1795816324        1.3307656800
  H         1.0660168448        0.5247145698        0.1871440600
  H        -0.7286986365       -0.6908276353       -0.1705418923
  H        -0.1469342945        0.8950835121       -0.5742826671
       5
 i =      148, time =       59.200, E =        -7.5954025831
  C         0.0356687509        0.0427791301        0.2272187368
  H         0.0588654086       -0.1767765894        1.3308351528
  H         1.0721972883        0.5230263298        0.1925090690
  H        -0.7264198120       -0.6934214529       -0.1689690865
  H        -0.1365219601        0.8994125996       -0.5684499010
       5
 i =      150, time =       60.000, E =        -7.5957443395
  C         0.0359201743        0.0449857191        0.2309572360
  H         0.0554906694       -0.1729036566        1.3301380952
  H         1.0787477730        0.5193667838        0.1973454434
  H        -0.7219090615       -0.6954089213       -0.1676953638