       5
 i =       22, time =        8.800, E =        -7.5880081022
  C         0.0268048534        0.0412171080       -0.0076892720
  H         0.0372293732       -0.2913950775        1.1568985999
  H         1.1420215293        0.2691624201       -0.2465453174
  H        -0.7606534608       -0.9008393342       -0.2915485751
  H        -0.6198316579        0.8547425213       -0.5650523229
