       5
 i =       34, time =       13.600, E =        -7.5963674257
  C         0.0232778673        0.0605989092       -0.0011289723
  H         0.0755263343       -0.3498265484        1.0200766624
  H         1.1098417503        0.3494160411       -0.1224207349
  H        -0.7747239219       -0.7413445977       -0.1733955545
  H        -0.5719815458        0.6964374356       -0.6406564491
