       5
 i =       52, time =       20.800, E =        -7.5923290394
  C         0.0290754393        0.0772368920        0.0164578418
  H         0.0910553909       -0.4018251892        1.0470090346
  H         1.0656050219        0.3879113781       -0.0463096804
  H        -0.7765029553       -0.6966476467       -0.1127481412
  H        -0.5483644505        0.7016865250       -0.7501301349
