       5
 i =       58, time =       23.200, E =        -7.5933128708
  C         0.0257665961        0.0830327981        0.0254792397
  H         0.0806919151       -0.3975460626        1.0817483226
  H         1.0996939733        0.3985063065       -0.0541942630
  H        -0.7852755460       -0.7355461823       -0.1218832731
  H        -0.5355630844        0.7218410546       -0.7520498228
