       5
 i =        4, time =        1.600, E =        -7.5561533990
  C         0.0086971147        0.0029880117       -0.0033928035
  H        -0.0062834972       -0.0507940999        1.1201910411
  H         1.0197107615        0.0199213691       -0.3559170103
  H        -0.5273999901       -0.8970675213       -0.3708165766
  H        -0.5437344642        0.9118319150       -0.3725559194
