       5
 i =       76, time =       30.400, E =        -7.5991578179
  C         0.0150630139        0.0834553352        0.0738883440
  H         0.0249971772       -0.2754581886        1.1147333061
  H         1.0940530161        0.3583477172       -0.0986809248
  H        -0.6876051010       -0.7963586812       -0.1736726680
  H        -0.4663922981        0.7698939029       -0.6415842369
