       5
 i =       98, time =       39.200, E =        -7.5969388611
  C         0.0148479990        0.0590562203        0.1306442430
  H         0.0103220742       -0.1620905245        1.2609925021
  H         1.0878276519        0.3154376153       -0.0832331670
  H        -0.6073025251       -0.8055615529       -0.2515253253
  H        -0.4503152274        0.8634278765       -0.5665402329
