       5
 i =       16, time =        6.400, E =        -7.5812059679
  C         0.0261265543        0.0266560628       -0.0083915929
  H         0.0162891390       -0.2340670770        1.1901791196
  H         1.1029612579        0.1842265557       -0.2985775601
  H        -0.6989817097       -0.9321269966       -0.3407358977
  H        -0.6186472755        0.9184410078       -0.5036316098
